       N       E                     dE             d eps       ncg     rms          rms(c)
DAV:   1    -0.181867592333E+02   -0.18187E+02   -0.22324E-08    40   0.159E-03
DAV:   2    -0.181867592337E+02   -0.40905E-09   -0.15898E-10    48   0.553E-04
DAV:   3    -0.181867592337E+02   -0.26830E-10    0.28061E-09    40   0.205E-04
DAV:   4    -0.181867592339E+02   -0.10823E-09    0.33568E-09    48   0.106E-04
DAV:   5    -0.181867592339E+02   -0.71850E-10    0.35316E-09    40   0.606E-05
DAV:   6    -0.181867592338E+02    0.81627E-10    0.35850E-09    24   0.361E-05
DAV:   7    -0.181867592339E+02   -0.97771E-10    0.36121E-09    24   0.225E-05
DAV:   8    -0.181867592338E+02    0.13029E-09    0.36306E-09    24   0.141E-05
DAV:   9    -0.181867592337E+02    0.62755E-10    0.36266E-09    24   0.918E-06
DAV:  10    -0.181867592339E+02   -0.19872E-09    0.36265E-09    24   0.596E-06
DAV:  11    -0.181867592337E+02    0.22919E-09    0.36283E-09    24   0.399E-06
DAV:  12    -0.181867592340E+02   -0.27194E-09    0.36359E-09    24   0.265E-06    0.217E-04
DAV:  13    -0.181867592307E+02    0.33257E-08   -0.41055E-10    40   0.484E-04
   1 F= -.18186759E+02 E0= -.18186759E+02  d E =-.181868E+02  mag=    -0.0000
