 vasp.5.4.4.18Apr17-6-g9f103f2a35 (build Nov 15 2017 09:44:57) complex          
  
 executed on             LinuxIFC date 2019.08.28  20:43:21
 running on   32 total cores
 distrk:  each k-point on   32 cores,    1 groups
 distr:  one band on NCORES_PER_BAND=   8 cores,    4 groups


--------------------------------------------------------------------------------------------------------


 INCAR:
 POTCAR:    PAW_PBE H 15Jun2001                   
 POTCAR:    PAW_PBE O 08Apr2002                   
 POTCAR:    PAW_PBE H 15Jun2001                   
   VRHFIN =H: ultrasoft test                                                    
   LEXCH  = PE                                                                  
   EATOM  =    12.4884 eV,    0.9179 Ry                                         
                                                                                
   TITEL  = PAW_PBE H 15Jun2001                                                 
   LULTRA =        F    use ultrasoft PP ?                                      
   IUNSCR =        0    unscreen: 0-lin 1-nonlin 2-no                           
   RPACOR =    0.000    partial core radius                                     
   POMASS =    1.000; ZVAL   =    1.000    mass and valenz                      
   RCORE  =    1.100    outmost cutoff radius                                   
   RWIGS  =    0.700; RWIGS  =    0.370    wigner-seitz radius (au A)           
   ENMAX  =  250.000; ENMIN  =  200.000 eV                                      
   RCLOC  =    0.701    cutoff for local pot                                    
   LCOR   =        T    correct aug charges                                     
   LPAW   =        T    paw PP                                                  
   EAUG   =  400.000                                                            
   RMAX   =    1.123    core radius for proj-oper                               
   RAUG   =    1.200    factor for augmentation sphere                          
   RDEP   =    1.112    radius for radial grids                                 
   RDEPT  =    0.926    core radius for aug-charge                              
                                                                                
   Atomic configuration                                                         
    2 entries                                                                   
     n  l   j            E        occ.                                          
     1  0  0.50        -6.4927   1.0000                                         
     2  1  0.50        -3.4015   0.0000                                         
   Description                                                                  
     l       E           TYP  RCUT    TYP  RCUT                                 
     0     -6.4927494     23  1.100                                             
     0      6.8029130     23  1.100                                             
     1     -4.0817478     23  1.100                                             
  local pseudopotential read in
  atomic valenz-charges read in
  non local Contribution for L=           0  read in
    real space projection operators read in
  non local Contribution for L=           0  read in
    real space projection operators read in
  non local Contribution for L=           1  read in
    real space projection operators read in
    PAW grid and wavefunctions read in
 
   number of l-projection  operators is LMAX  =           3
   number of lm-projection operators is LMMAX =           5
 
 POTCAR:    PAW_PBE O 08Apr2002                   
   VRHFIN =O: s2p4                                                              
   LEXCH  = PE                                                                  
   EATOM  =   432.3788 eV,   31.7789 Ry                                         
                                                                                
   TITEL  = PAW_PBE O 08Apr2002                                                 
   LULTRA =        F    use ultrasoft PP ?                                      
   IUNSCR =        1    unscreen: 0-lin 1-nonlin 2-no                           
   RPACOR =    1.200    partial core radius                                     
   POMASS =   16.000; ZVAL   =    6.000    mass and valenz                      
   RCORE  =    1.520    outmost cutoff radius                                   
   RWIGS  =    1.550; RWIGS  =    0.820    wigner-seitz radius (au A)           
   ENMAX  =  400.000; ENMIN  =  300.000 eV                                      
   ICORE  =        2    local potential                                         
   LCOR   =        T    correct aug charges                                     
   LPAW   =        T    paw PP                                                  
   EAUG   =  605.392                                                            
   DEXC   =    0.000                                                            
   RMAX   =    1.553    core radius for proj-oper                               
   RAUG   =    1.300    factor for augmentation sphere                          
   RDEP   =    1.550    radius for radial grids                                 
   RDEPT  =    1.329    core radius for aug-charge                              
                                                                                
   Atomic configuration                                                         
    4 entries                                                                   
     n  l   j            E        occ.                                          
     1  0  0.50      -514.6923   2.0000                                         
     2  0  0.50       -23.9615   2.0000                                         
     2  1  0.50        -9.0305   4.0000                                         
     3  2  1.50        -9.5241   0.0000                                         
   Description                                                                  
     l       E           TYP  RCUT    TYP  RCUT                                 
     0    -23.9615318     23  1.200                                             
     0     -9.5240782     23  1.200                                             
     1     -9.0304911     23  1.520                                             
     1      8.1634956     23  1.520                                             
     2     -9.5240782      7  1.500                                             
  local pseudopotential read in
  partial core-charges read in
  partial kinetic energy density read in
  kinetic energy density of atom read in
  atomic valenz-charges read in
  non local Contribution for L=           0  read in
    real space projection operators read in
  non local Contribution for L=           0  read in
    real space projection operators read in
  non local Contribution for L=           1  read in
    real space projection operators read in
  non local Contribution for L=           1  read in
    real space projection operators read in
    PAW grid and wavefunctions read in
 
   number of l-projection  operators is LMAX  =           4
   number of lm-projection operators is LMMAX =           8
 
  PAW_PBE H 15Jun2001                   :
 energy of atom  1       EATOM=  -12.4884
 kinetic energy error for atom=    0.0004 (will be added to EATOM!!)
  PAW_PBE O 08Apr2002                   :
 energy of atom  2       EATOM= -432.3788
 kinetic energy error for atom=    0.0168 (will be added to EATOM!!)
 
 
 POSCAR: H2 O2                                   
  positions in direct lattice
  velocities in cartesian coordinates
 exchange correlation table for  LEXCH =        8
   RHO(1)=    0.500       N(1)  =     2000
   RHO(2)=  100.500       N(2)  =     4000
 


--------------------------------------------------------------------------------------------------------


 ion  position               nearest neighbor table
   1  0.492  0.547  0.491-   3 0.98
   2  0.582  0.490  0.547-   4 0.98
   3  0.500  0.500  0.500-   1 0.98   4 1.47
   4  0.574  0.500  0.500-   2 0.98   3 1.47
 

IMPORTANT INFORMATION: All symmetrisations will be switched off!
NOSYMM: (Re-)initialisation of all symmetry stuff for point group C_1.

 
 
 KPOINTS: pymatgen 4.7.6+ generated KPOINTS with g

Automatic generation of k-mesh.
Space group operators:
 irot       det(A)        alpha          n_x          n_y          n_z        tau_x        tau_y        tau_z
    1     1.000000     0.000000     1.000000     0.000000     0.000000     0.000000     0.000000     0.000000
 
 Subroutine IBZKPT returns following result:
 ===========================================
 
 Found      1 irreducible k-points:
 
 Following reciprocal coordinates:
            Coordinates               Weight
  0.000000  0.000000  0.000000      1.000000
 
 Following cartesian coordinates:
            Coordinates               Weight
  0.000000  0.000000  0.000000      1.000000
 


--------------------------------------------------------------------------------------------------------




 Dimension of arrays:
   k-points           NKPTS =      1   k-points in BZ     NKDIM =      1   number of bands    NBANDS=     12
   number of dos      NEDOS =   1001   number of ions     NIONS =      4
   non local maximal  LDIM  =      4   non local SUM 2l+1 LMDIM =      8
   total plane-waves  NPLWV = ******
   max r-space proj   IRMAX =      1   max aug-charges    IRDMAX=   6841
   dimension x,y,z NGX =   160 NGY =  160 NGZ =  160
   dimension x,y,z NGXF=   320 NGYF=  320 NGZF=  320
   support grid    NGXF=   320 NGYF=  320 NGZF=  320
   ions per type =               2   2
   NGX,Y,Z   is equivalent  to a cutoff of  13.30, 13.30, 13.30 a.u.
   NGXF,Y,Z  is equivalent  to a cutoff of  26.60, 26.60, 26.60 a.u.

 SYSTEM =  H2-o2__ne_000_d_130                     
 POSCAR =  H2 O2                                   

 Startparameter for this run:
   NWRITE =      2    write-flag & timer
   PREC   = accura    normal or accurate (medium, high low for compatibility)
   ISTART =      1    job   : 0-new  1-cont  2-samecut
   ICHARG =      0    charge: 1-file 2-atom 10-const
   ISPIN  =      2    spin polarized calculation?
   LNONCOLLINEAR =      F non collinear calculations
   LSORBIT =      F    spin-orbit coupling
   INIWAV =      1    electr: 0-lowe 1-rand  2-diag
   LASPH  =      T    aspherical Exc in radial PAW
   METAGGA=      F    non-selfconsistent MetaGGA calc.

 Electronic Relaxation 1
   ENCUT  =  600.0 eV  44.10 Ry    6.64 a.u.  39.94 39.94 39.94*2*pi/ulx,y,z
   ENINI  =  600.0     initial cutoff
   ENAUG  =  605.4 eV  augmentation charge cutoff
   NELM   =    100;   NELMIN=  4; NELMDL=-12     # of ELM steps 
   EDIFF  = 0.1E-05   stopping-criterion for ELM
   LREAL  =      F    real-space projection
   NLSPLINE    = F    spline interpolate recip. space projectors
   LCOMPAT=      F    compatible to vasp.4.4
   GGA_COMPAT  = T    GGA compatible to vasp.4.4-vasp.4.6
   LMAXPAW     = -100 max onsite density
   LMAXMIX     =    4 max onsite mixed and CHGCAR
   VOSKOWN=      0    Vosko Wilk Nusair interpolation
   ROPT   =    0.00000   0.00000
 Ionic relaxation
   EDIFFG = -.1E-02   stopping-criterion for IOM
   NSW    =    200    number of steps for IOM
   NBLOCK =      1;   KBLOCK =    200    inner block; outer block 
   IBRION =      1    ionic relax: 0-MD 1-quasi-New 2-CG
   NFREE  =      0    steps in history (QN), initial steepest desc. (CG)
   ISIF   =      0    stress and relaxation
   IWAVPR =     11    prediction:  0-non 1-charg 2-wave 3-comb
   ISYM   =      0    0-nonsym 1-usesym 2-fastsym
   LCORR  =      T    Harris-Foulkes like correction to forces

   POTIM  = 0.5000    time-step for ionic-motion
   TEIN   =    0.0    initial temperature
   TEBEG  =    0.0;   TEEND  =   0.0 temperature during run
   SMASS  =  -3.00    Nose mass-parameter (am)
   estimated Nose-frequenzy (Omega)   =  0.10E-29 period in steps =****** mass=  -0.914E-26a.u.
   SCALEE = 1.0000    scale energy and forces
   NPACO  =    256;   APACO  = 16.0  distance and # of slots for P.C.
   PSTRESS=    0.0 pullay stress

  Mass of Ions in am
   POMASS =   1.00 16.00
  Ionic Valenz
   ZVAL   =   1.00  6.00
  Atomic Wigner-Seitz radii
   RWIGS  =  -1.00 -1.00
  virtual crystal weights 
   VCA    =   1.00  1.00
   NELECT =      14.0000    total number of electrons
   NUPDOWN=      -1.0000    fix difference up-down

 DOS related values:
   EMIN   =  10.00;   EMAX   =-10.00  energy-range for DOS
   EFERMI =   0.00
   ISMEAR =     0;   SIGMA  =   0.01  broadening in eV -4-tet -1-fermi 0-gaus

 Electronic relaxation 2 (details)
   IALGO  =     38    algorithm
   LDIAG  =      T    sub-space diagonalisation (order eigenvalues)
   LSUBROT=      F    optimize rotation matrix (better conditioning)
   TURBO    =      0    0=normal 1=particle mesh
   IRESTART =      0    0=no restart 2=restart with 2 vectors
   NREBOOT  =      0    no. of reboots
   NMIN     =      0    reboot dimension
   EREF     =   0.00    reference energy to select bands
   IMIX   =      4    mixing-type and parameters
     AMIX     =   0.40;   BMIX     =  1.00
     AMIX_MAG =   1.60;   BMIX_MAG =  1.00
     AMIN     =   0.10
     WC   =   100.;   INIMIX=   1;  MIXPRE=   1;  MAXMIX= -45

 Intra band minimization:
   WEIMIN = 0.0010     energy-eigenvalue tresh-hold
   EBREAK =  0.21E-07  absolut break condition
   DEPER  =   0.30     relativ break condition  

   TIME   =   0.40     timestep for ELM

  volume/ion in A,a.u.               =    2000.00     13496.67
  Fermi-wavevector in a.u.,A,eV,Ry     =   0.197282  0.372809  0.529541  0.038920
  Thomas-Fermi vector in A             =   0.947104
 
 Write flags
   LWAVE        =      T    write WAVECAR
   LDOWNSAMPLE  =      F    k-point downsampling of WAVECAR
   LCHARG       =      T    write CHGCAR
   LVTOT        =      F    write LOCPOT, total local potential
   LVHAR        =      F    write LOCPOT, Hartree potential only
   LELF         =      F    write electronic localiz. function (ELF)
   LORBIT       =     11    0 simple, 1 ext, 2 COOP (PROOUT), +10 PAW based schemes


 Dipole corrections
   LMONO  =      F    monopole corrections only (constant potential shift)
   LDIPOL =      F    correct potential (dipole corrections)
   IDIPOL =      0    1-x, 2-y, 3-z, 4-all directions 
   EPSILON=  1.0000000 bulk dielectric constant

 Exchange correlation treatment:
   GGA     =    --    GGA type
   LEXCH   =     8    internal setting for exchange type
   VOSKOWN=      0    Vosko Wilk Nusair interpolation
   LHFCALC =     F    Hartree Fock is set to
   LHFONE  =     F    Hartree Fock one center treatment
   AEXX    =    0.0000 exact exchange contribution

 Linear response parameters
   LEPSILON=     F    determine dielectric tensor
   LRPA    =     F    only Hartree local field effects (RPA)
   LNABLA  =     F    use nabla operator in PAW spheres
   LVEL    =     F    velocity operator in full k-point grid
   LINTERFAST=   F  fast interpolation
   KINTER  =     0    interpolate to denser k-point grid
   CSHIFT  =0.1000    complex shift for real part using Kramers Kronig
   OMEGAMAX=  -1.0    maximum frequency
   DEG_THRESHOLD= 0.2000000E-02 threshold for treating states as degnerate
   RTIME   =   -0.100 relaxation time in fs
  (WPLASMAI=    0.000 imaginary part of plasma frequency in eV, 0.658/RTIME)
   DFIELD  = 0.0000000 0.0000000 0.0000000 field for delta impulse in time
 
 Orbital magnetization related:
   ORBITALMAG=     F  switch on orbital magnetization
   LCHIMAG   =     F  perturbation theory with respect to B field
   DQ        =  0.001000  dq finite difference perturbation B field
   LLRAUG    =     F  two centre corrections for induced B field



--------------------------------------------------------------------------------------------------------


 quasi-Newton-method for relaxation of ions
   using selective dynamics as specified on POSCAR
 charge density and potential will be updated during run
 spin polarized calculation
 Variant of blocked Davidson
 Davidson routine will perform the subspace rotation
 perform sub-space diagonalisation
    after iterative eigenvector-optimisation
 modified Broyden-mixing scheme, WC =      100.0
 initial mixing is a Kerker type mixing with AMIX =  0.4000 and BMIX =      1.0000
 Hartree-type preconditioning will be used
 using additional bands            5
 reciprocal scheme for non local part
 use partial core corrections
 calculate Harris-corrections to forces 
   (improved forces if not selfconsistent)
 use gradient corrections 
 use of overlap-Matrix (Vanderbilt PP)
 Gauss-broadening in eV      SIGMA  =   0.01


--------------------------------------------------------------------------------------------------------


  energy-cutoff  :      600.00
  volume of cell :     8000.00
      direct lattice vectors                 reciprocal lattice vectors
    20.000000000  0.000000000  0.000000000     0.050000000  0.000000000  0.000000000
     0.000000000 20.000000000  0.000000000     0.000000000  0.050000000  0.000000000
     0.000000000  0.000000000 20.000000000     0.000000000  0.000000000  0.050000000

  length of vectors
    20.000000000 20.000000000 20.000000000     0.050000000  0.050000000  0.050000000


 
 old parameters found on file WAVECAR:
  energy-cutoff  :      600.00
  volume of cell :     8000.00
      direct lattice vectors                 reciprocal lattice vectors
    20.000000000  0.000000000  0.000000000     0.050000000  0.000000000  0.000000000
     0.000000000 20.000000000  0.000000000     0.000000000  0.050000000  0.000000000
     0.000000000  0.000000000 20.000000000     0.000000000  0.000000000  0.050000000

  length of vectors

 
 k-points in units of 2pi/SCALE and weight: pymatgen 4.7.6+ generated KPOINTS with g
   0.00000000  0.00000000  0.00000000       1.000
 
 k-points in reciprocal lattice and weights: pymatgen 4.7.6+ generated KPOINTS with g
   0.00000000  0.00000000  0.00000000       1.000
 
 position of ions in fractional coordinates (direct lattice) 
   0.49156100  0.54727700  0.49067000
   0.58197100  0.49021900  0.54718500
   0.50000000  0.50000000  0.50000000
   0.57352700  0.50000000  0.50000000
 
 position of ions in cartesian coordinates  (Angst):
   9.83122000 10.94554000  9.81340000
  11.63942000  9.80438000 10.94370000
  10.00000000 10.00000000 10.00000000
  11.47054000 10.00000000 10.00000000
 


--------------------------------------------------------------------------------------------------------


 k-point  1 :   0.0000 0.0000 0.0000  plane waves:  267179

 maximum and minimum number of plane-waves per node :     33412    33381

 maximum number of plane-waves:    267179
 maximum index in each direction: 
   IXMAX=   39   IYMAX=   39   IZMAX=   39
   IXMIN=  -39   IYMIN=  -39   IZMIN=  -39


 parallel 3D FFT for wavefunctions:
    minimum data exchange during FFTs selected (reduces bandwidth)
 parallel 3D FFT for charge:
    minimum data exchange during FFTs selected (reduces bandwidth)


 total amount of memory used by VASP MPI-rank0   212711. kBytes
=======================================================================

   base      :      30000. kBytes
   nonl-proj :       6412. kBytes
   fftplans  :      49695. kBytes
   grid      :     123392. kBytes
   one-center:          6. kBytes
   wavefun   :       3206. kBytes
 
     INWAV:  cpu time    0.3192: real time    0.4992
 Broyden mixing: mesh for mixing (old mesh)
   NGX = 79   NGY = 79   NGZ = 79
  (NGX  =320   NGY  =320   NGZ  =320)
  gives a total of 493039 points

 charge density for first step will be calculated from the start-wavefunctions


--------------------------------------------------------------------------------------------------------


 Maximum index for augmentation-charges          421 (set IRDMAX)


--------------------------------------------------------------------------------------------------------


 initial charge from wavefunction
 First call to EWALD:  gamma=   0.089
 Maximum number of real-space cells 3x 3x 3
 Maximum number of reciprocal cells 3x 3x 3

    FEWALD:  cpu time    0.0068: real time    0.0077


--------------------------------------- Iteration      1(   1)  ---------------------------------------


    POTLOK:  cpu time    2.1557: real time    2.1761
    SETDIJ:  cpu time    0.2025: real time    0.2030
     EDDAV:  cpu time    0.8251: real time    0.8278
       DOS:  cpu time    0.0002: real time    0.0002
    --------------------------------------------
      LOOP:  cpu time    3.1835: real time    3.2070

 eigenvalue-minimisations  :    40
 total energy-change (2. order) :-0.1818676E+02  (-0.2232427E-08)
 number of electron      13.9999999 magnetization      -0.0000000
 augmentation part        1.2444729 magnetization      -0.0000000

 Free energy of the ion-electron system (eV)
  ---------------------------------------------------
  alpha Z        PSCENC =         0.08958335
  Ewald energy   TEWEN  =       426.27006076
  -Hartree energ DENC   =     -1191.75885802
  -exchange      EXHF   =         0.00000000
  -V(xc)+E(xc)   XCENC  =        61.74972846
  PAW double counting   =       958.91115242     -962.80390148
  entropy T*S    EENTRO =        -0.00000000
  eigenvalues    EBANDS =      -200.34446235
  atomic energy  EATOM  =       889.69993763
  Solvation  Ediel_sol  =         0.00000000
  ---------------------------------------------------
  free energy    TOTEN  =       -18.18675923 eV

  energy without entropy =      -18.18675923  energy(sigma->0) =      -18.18675923


--------------------------------------------------------------------------------------------------------




--------------------------------------- Iteration      1(   2)  ---------------------------------------


     EDDAV:  cpu time    0.9174: real time    0.9227
       DOS:  cpu time    0.0002: real time    0.0002
    --------------------------------------------
      LOOP:  cpu time    0.9176: real time    0.9229

 eigenvalue-minimisations  :    48
 total energy-change (2. order) :-0.4090452E-09  (-0.1589839E-10)
 number of electron      13.9999999 magnetization      -0.0000000
 augmentation part        1.2444729 magnetization      -0.0000000

 Free energy of the ion-electron system (eV)
  ---------------------------------------------------
  alpha Z        PSCENC =         0.08958335
  Ewald energy   TEWEN  =       426.27006076
  -Hartree energ DENC   =     -1191.75885802
  -exchange      EXHF   =         0.00000000
  -V(xc)+E(xc)   XCENC  =        61.74972846
  PAW double counting   =       958.91115242     -962.80390148
  entropy T*S    EENTRO =        -0.00000000
  eigenvalues    EBANDS =      -200.34446235
  atomic energy  EATOM  =       889.69993763
  Solvation  Ediel_sol  =         0.00000000
  ---------------------------------------------------
  free energy    TOTEN  =       -18.18675923 eV

  energy without entropy =      -18.18675923  energy(sigma->0) =      -18.18675923


--------------------------------------------------------------------------------------------------------




--------------------------------------- Iteration      1(   3)  ---------------------------------------


     EDDAV:  cpu time    0.8129: real time    0.8151
       DOS:  cpu time    0.0001: real time    0.0001
    --------------------------------------------
      LOOP:  cpu time    0.8131: real time    0.8152

 eigenvalue-minimisations  :    40
 total energy-change (2. order) :-0.2683009E-10  ( 0.2806146E-09)
 number of electron      13.9999999 magnetization      -0.0000000
 augmentation part        1.2444729 magnetization      -0.0000000

 Free energy of the ion-electron system (eV)
  ---------------------------------------------------
  alpha Z        PSCENC =         0.08958335
  Ewald energy   TEWEN  =       426.27006076
  -Hartree energ DENC   =     -1191.75885802
  -exchange      EXHF   =         0.00000000
  -V(xc)+E(xc)   XCENC  =        61.74972846
  PAW double counting   =       958.91115242     -962.80390148
  entropy T*S    EENTRO =        -0.00000000
  eigenvalues    EBANDS =      -200.34446235
  atomic energy  EATOM  =       889.69993763
  Solvation  Ediel_sol  =         0.00000000
  ---------------------------------------------------
  free energy    TOTEN  =       -18.18675923 eV

  energy without entropy =      -18.18675923  energy(sigma->0) =      -18.18675923


--------------------------------------------------------------------------------------------------------




--------------------------------------- Iteration      1(   4)  ---------------------------------------


     EDDAV:  cpu time    0.9144: real time    0.9168
       DOS:  cpu time    0.0001: real time    0.0001
    --------------------------------------------
      LOOP:  cpu time    0.9145: real time    0.9169

 eigenvalue-minimisations  :    48
 total energy-change (2. order) :-0.1082299E-09  ( 0.3356790E-09)
 number of electron      13.9999999 magnetization      -0.0000000
 augmentation part        1.2444729 magnetization      -0.0000000

 Free energy of the ion-electron system (eV)
  ---------------------------------------------------
  alpha Z        PSCENC =         0.08958335
  Ewald energy   TEWEN  =       426.27006076
  -Hartree energ DENC   =     -1191.75885802
  -exchange      EXHF   =         0.00000000
  -V(xc)+E(xc)   XCENC  =        61.74972846
  PAW double counting   =       958.91115242     -962.80390148
  entropy T*S    EENTRO =        -0.00000000
  eigenvalues    EBANDS =      -200.34446235
  atomic energy  EATOM  =       889.69993763
  Solvation  Ediel_sol  =         0.00000000
  ---------------------------------------------------
  free energy    TOTEN  =       -18.18675923 eV

  energy without entropy =      -18.18675923  energy(sigma->0) =      -18.18675923


--------------------------------------------------------------------------------------------------------




--------------------------------------- Iteration      1(   5)  ---------------------------------------


     EDDAV:  cpu time    0.8132: real time    0.8154
       DOS:  cpu time    0.0001: real time    0.0001
    --------------------------------------------
      LOOP:  cpu time    0.8134: real time    0.8155

 eigenvalue-minimisations  :    40
 total energy-change (2. order) :-0.7185008E-10  ( 0.3531584E-09)
 number of electron      13.9999999 magnetization      -0.0000000
 augmentation part        1.2444729 magnetization      -0.0000000

 Free energy of the ion-electron system (eV)
  ---------------------------------------------------
  alpha Z        PSCENC =         0.08958335
  Ewald energy   TEWEN  =       426.27006076
  -Hartree energ DENC   =     -1191.75885802
  -exchange      EXHF   =         0.00000000
  -V(xc)+E(xc)   XCENC  =        61.74972846
  PAW double counting   =       958.91115242     -962.80390148
  entropy T*S    EENTRO =        -0.00000000
  eigenvalues    EBANDS =      -200.34446235
  atomic energy  EATOM  =       889.69993763
  Solvation  Ediel_sol  =         0.00000000
  ---------------------------------------------------
  free energy    TOTEN  =       -18.18675923 eV

  energy without entropy =      -18.18675923  energy(sigma->0) =      -18.18675923


--------------------------------------------------------------------------------------------------------




--------------------------------------- Iteration      1(   6)  ---------------------------------------


     EDDAV:  cpu time    0.6078: real time    0.6095
       DOS:  cpu time    0.0001: real time    0.0001
    --------------------------------------------
      LOOP:  cpu time    0.6079: real time    0.6096

 eigenvalue-minimisations  :    24
 total energy-change (2. order) : 0.8162715E-10  ( 0.3585026E-09)
 number of electron      13.9999999 magnetization      -0.0000000
 augmentation part        1.2444729 magnetization      -0.0000000

 Free energy of the ion-electron system (eV)
  ---------------------------------------------------
  alpha Z        PSCENC =         0.08958335
  Ewald energy   TEWEN  =       426.27006076
  -Hartree energ DENC   =     -1191.75885802
  -exchange      EXHF   =         0.00000000
  -V(xc)+E(xc)   XCENC  =        61.74972846
  PAW double counting   =       958.91115242     -962.80390148
  entropy T*S    EENTRO =        -0.00000000
  eigenvalues    EBANDS =      -200.34446235
  atomic energy  EATOM  =       889.69993763
  Solvation  Ediel_sol  =         0.00000000
  ---------------------------------------------------
  free energy    TOTEN  =       -18.18675923 eV

  energy without entropy =      -18.18675923  energy(sigma->0) =      -18.18675923


--------------------------------------------------------------------------------------------------------




--------------------------------------- Iteration      1(   7)  ---------------------------------------


     EDDAV:  cpu time    0.6082: real time    0.6098
       DOS:  cpu time    0.0001: real time    0.0001
    --------------------------------------------
      LOOP:  cpu time    0.6083: real time    0.6099

 eigenvalue-minimisations  :    24
 total energy-change (2. order) :-0.9777068E-10  ( 0.3612097E-09)
 number of electron      13.9999999 magnetization      -0.0000000
 augmentation part        1.2444729 magnetization      -0.0000000

 Free energy of the ion-electron system (eV)
  ---------------------------------------------------
  alpha Z        PSCENC =         0.08958335
  Ewald energy   TEWEN  =       426.27006076
  -Hartree energ DENC   =     -1191.75885802
  -exchange      EXHF   =         0.00000000
  -V(xc)+E(xc)   XCENC  =        61.74972846
  PAW double counting   =       958.91115242     -962.80390148
  entropy T*S    EENTRO =        -0.00000000
  eigenvalues    EBANDS =      -200.34446235
  atomic energy  EATOM  =       889.69993763
  Solvation  Ediel_sol  =         0.00000000
  ---------------------------------------------------
  free energy    TOTEN  =       -18.18675923 eV

  energy without entropy =      -18.18675923  energy(sigma->0) =      -18.18675923


--------------------------------------------------------------------------------------------------------




--------------------------------------- Iteration      1(   8)  ---------------------------------------


     EDDAV:  cpu time    0.6069: real time    0.6087
       DOS:  cpu time    0.0001: real time    0.0001
    --------------------------------------------
      LOOP:  cpu time    0.6071: real time    0.6089

 eigenvalue-minimisations  :    24
 total energy-change (2. order) : 0.1302851E-09  ( 0.3630607E-09)
 number of electron      13.9999999 magnetization      -0.0000000
 augmentation part        1.2444729 magnetization      -0.0000000

 Free energy of the ion-electron system (eV)
  ---------------------------------------------------
  alpha Z        PSCENC =         0.08958335
  Ewald energy   TEWEN  =       426.27006076
  -Hartree energ DENC   =     -1191.75885802
  -exchange      EXHF   =         0.00000000
  -V(xc)+E(xc)   XCENC  =        61.74972846
  PAW double counting   =       958.91115242     -962.80390148
  entropy T*S    EENTRO =        -0.00000000
  eigenvalues    EBANDS =      -200.34446235
  atomic energy  EATOM  =       889.69993763
  Solvation  Ediel_sol  =         0.00000000
  ---------------------------------------------------
  free energy    TOTEN  =       -18.18675923 eV

  energy without entropy =      -18.18675923  energy(sigma->0) =      -18.18675923


--------------------------------------------------------------------------------------------------------




--------------------------------------- Iteration      1(   9)  ---------------------------------------


     EDDAV:  cpu time    0.6075: real time    0.6091
       DOS:  cpu time    0.0001: real time    0.0001
    --------------------------------------------
      LOOP:  cpu time    0.6076: real time    0.6092

 eigenvalue-minimisations  :    24
 total energy-change (2. order) : 0.6275513E-10  ( 0.3626566E-09)
 number of electron      13.9999999 magnetization      -0.0000000
 augmentation part        1.2444729 magnetization      -0.0000000

 Free energy of the ion-electron system (eV)
  ---------------------------------------------------
  alpha Z        PSCENC =         0.08958335
  Ewald energy   TEWEN  =       426.27006076
  -Hartree energ DENC   =     -1191.75885802
  -exchange      EXHF   =         0.00000000
  -V(xc)+E(xc)   XCENC  =        61.74972846
  PAW double counting   =       958.91115242     -962.80390148
  entropy T*S    EENTRO =        -0.00000000
  eigenvalues    EBANDS =      -200.34446235
  atomic energy  EATOM  =       889.69993763
  Solvation  Ediel_sol  =         0.00000000
  ---------------------------------------------------
  free energy    TOTEN  =       -18.18675923 eV

  energy without entropy =      -18.18675923  energy(sigma->0) =      -18.18675923


--------------------------------------------------------------------------------------------------------




--------------------------------------- Iteration      1(  10)  ---------------------------------------


     EDDAV:  cpu time    0.6080: real time    0.6096
       DOS:  cpu time    0.0001: real time    0.0001
    --------------------------------------------
      LOOP:  cpu time    0.6081: real time    0.6097

 eigenvalue-minimisations  :    24
 total energy-change (2. order) :-0.1987246E-09  ( 0.3626450E-09)
 number of electron      13.9999999 magnetization      -0.0000000
 augmentation part        1.2444729 magnetization      -0.0000000

 Free energy of the ion-electron system (eV)
  ---------------------------------------------------
  alpha Z        PSCENC =         0.08958335
  Ewald energy   TEWEN  =       426.27006076
  -Hartree energ DENC   =     -1191.75885802
  -exchange      EXHF   =         0.00000000
  -V(xc)+E(xc)   XCENC  =        61.74972846
  PAW double counting   =       958.91115242     -962.80390148
  entropy T*S    EENTRO =        -0.00000000
  eigenvalues    EBANDS =      -200.34446235
  atomic energy  EATOM  =       889.69993763
  Solvation  Ediel_sol  =         0.00000000
  ---------------------------------------------------
  free energy    TOTEN  =       -18.18675923 eV

  energy without entropy =      -18.18675923  energy(sigma->0) =      -18.18675923


--------------------------------------------------------------------------------------------------------




--------------------------------------- Iteration      1(  11)  ---------------------------------------


     EDDAV:  cpu time    0.6081: real time    0.6097
       DOS:  cpu time    0.0001: real time    0.0001
    --------------------------------------------
      LOOP:  cpu time    0.6082: real time    0.6098

 eigenvalue-minimisations  :    24
 total energy-change (2. order) : 0.2291927E-09  ( 0.3628315E-09)
 number of electron      13.9999999 magnetization      -0.0000000
 augmentation part        1.2444729 magnetization      -0.0000000

 Free energy of the ion-electron system (eV)
  ---------------------------------------------------
  alpha Z        PSCENC =         0.08958335
  Ewald energy   TEWEN  =       426.27006076
  -Hartree energ DENC   =     -1191.75885802
  -exchange      EXHF   =         0.00000000
  -V(xc)+E(xc)   XCENC  =        61.74972846
  PAW double counting   =       958.91115242     -962.80390148
  entropy T*S    EENTRO =        -0.00000000
  eigenvalues    EBANDS =      -200.34446235
  atomic energy  EATOM  =       889.69993763
  Solvation  Ediel_sol  =         0.00000000
  ---------------------------------------------------
  free energy    TOTEN  =       -18.18675923 eV

  energy without entropy =      -18.18675923  energy(sigma->0) =      -18.18675923


--------------------------------------------------------------------------------------------------------




--------------------------------------- Iteration      1(  12)  ---------------------------------------


     EDDAV:  cpu time    0.6071: real time    0.6117
       DOS:  cpu time    0.0002: real time    0.0002
    CHARGE:  cpu time    0.2656: real time    0.2663
    MIXING:  cpu time    0.0408: real time    0.0410
    --------------------------------------------
      LOOP:  cpu time    0.9137: real time    0.9192

 eigenvalue-minimisations  :    24
 total energy-change (2. order) :-0.2719389E-09  ( 0.3635883E-09)
 number of electron      13.9999999 magnetization      -0.0000000
 augmentation part        1.2444775 magnetization      -0.0000000

 Broyden mixing:
  rms(total) = 0.21713E-04    rms(broyden)= 0.21705E-04
  rms(prec ) = 0.23506E-04
  weight for this iteration     100.00

 Free energy of the ion-electron system (eV)
  ---------------------------------------------------
  alpha Z        PSCENC =         0.08958335
  Ewald energy   TEWEN  =       426.27006076
  -Hartree energ DENC   =     -1191.75885802
  -exchange      EXHF   =         0.00000000
  -V(xc)+E(xc)   XCENC  =        61.74972846
  PAW double counting   =       958.91115242     -962.80390148
  entropy T*S    EENTRO =        -0.00000000
  eigenvalues    EBANDS =      -200.34446235
  atomic energy  EATOM  =       889.69993763
  Solvation  Ediel_sol  =         0.00000000
  ---------------------------------------------------
  free energy    TOTEN  =       -18.18675923 eV

  energy without entropy =      -18.18675923  energy(sigma->0) =      -18.18675923


--------------------------------------------------------------------------------------------------------




--------------------------------------- Iteration      1(  13)  ---------------------------------------


    POTLOK:  cpu time    2.1326: real time    2.1379
    SETDIJ:  cpu time    0.2027: real time    0.2032
     EDDAV:  cpu time    0.8135: real time    0.8155
       DOS:  cpu time    0.0002: real time    0.0002
    --------------------------------------------
      LOOP:  cpu time    3.1489: real time    3.1567

 eigenvalue-minimisations  :    40
 total energy-change (2. order) : 0.3325681E-08  (-0.4105516E-10)
 number of electron      13.9999999 magnetization      -0.0000000
 augmentation part        1.2444775 magnetization      -0.0000000

 Free energy of the ion-electron system (eV)
  ---------------------------------------------------
  alpha Z        PSCENC =         0.08958335
  Ewald energy   TEWEN  =       426.27006076
  -Hartree energ DENC   =     -1191.75958565
  -exchange      EXHF   =         0.00000000
  -V(xc)+E(xc)   XCENC  =        61.74976237
  PAW double counting   =       958.91196408     -962.80472041
  entropy T*S    EENTRO =        -0.00000000
  eigenvalues    EBANDS =      -200.34376136
  atomic energy  EATOM  =       889.69993763
  Solvation  Ediel_sol  =         0.00000000
  ---------------------------------------------------
  free energy    TOTEN  =       -18.18675923 eV

  energy without entropy =      -18.18675923  energy(sigma->0) =      -18.18675923


--------------------------------------------------------------------------------------------------------




 average (electrostatic) potential at core
  the test charge radii are     0.5201  0.7215
  (the norm of the test charge is              1.0000)
       1 -45.1357       2 -45.1356       3 -81.7655       4 -81.7655
 
 
 
 E-fermi :  -6.4439     XC(G=0):  -0.0952     alpha+bet : -0.0256


 spin component 1

 k-point     1 :       0.0000    0.0000    0.0000
  band No.  band energies     occupation 
      1     -28.0488      1.00000
      2     -22.5613      1.00000
      3     -13.3191      1.00000
      4     -11.9548      1.00000
      5     -10.2619      1.00000
      6      -7.5285      1.00000
      7      -6.4974      1.00000
      8      -1.6813      0.00000
      9      -0.8634      0.00000
     10       0.0541      0.00000
     11       0.1087      0.00000
     12       0.3423      0.00000

 spin component 2

 k-point     1 :       0.0000    0.0000    0.0000
  band No.  band energies     occupation 
      1     -28.0488      1.00000
      2     -22.5613      1.00000
      3     -13.3191      1.00000
      4     -11.9548      1.00000
      5     -10.2619      1.00000
      6      -7.5285      1.00000
      7      -6.4974      1.00000
      8      -1.6813      0.00000
      9      -0.8634      0.00000
     10       0.0541      0.00000
     11       0.1087      0.00000
     12       0.3423      0.00000


--------------------------------------------------------------------------------------------------------


 soft charge-density along one line, spin component           1
         0         1         2         3         4         5         6         7         8         9
 total charge-density along one line
 
 soft charge-density along one line, spin component           2
         0         1         2         3         4         5         6         7         8         9
 total charge-density along one line
 
 pseudopotential strength for first ion, spin component:           1
 -2.386  -4.122   0.016  -0.003  -0.003
 -4.122  -7.034   0.031  -0.006  -0.006
  0.016   0.031  -0.294  -0.006  -0.006
 -0.003  -0.006  -0.006  -0.322   0.001
 -0.003  -0.006  -0.006   0.001  -0.321
 pseudopotential strength for first ion, spin component:           2
 -2.386  -4.122   0.016  -0.003  -0.003
 -4.122  -7.034   0.031  -0.006  -0.006
  0.016   0.031  -0.294  -0.006  -0.006
 -0.003  -0.006  -0.006  -0.322   0.001
 -0.003  -0.006  -0.006   0.001  -0.321
 total augmentation occupancy for first ion, spin component:           1
  3.732  -0.792  -0.693   0.138   0.128
 -0.792   0.228   0.142  -0.028  -0.024
 -0.693   0.142   0.132  -0.018  -0.020
  0.138  -0.028  -0.018   0.044   0.003
  0.128  -0.024  -0.020   0.003   0.022
 total augmentation occupancy for first ion, spin component:           2
  0.000  -0.000  -0.000  -0.000  -0.000
 -0.000  -0.000   0.000   0.000   0.000
 -0.000   0.000   0.000   0.000   0.000
 -0.000   0.000   0.000   0.000   0.000
 -0.000   0.000   0.000   0.000  -0.000


------------------------ aborting loop because EDIFF is reached ----------------------------------------


 


 total charge     
 
# of ion       s       p       d       tot
------------------------------------------
    1        0.625   0.118   0.000   0.743
    2        0.625   0.118   0.000   0.743
    3        1.581   3.402   0.000   4.984
    4        1.581   3.402   0.000   4.984
--------------------------------------------------
tot          4.413   7.040   0.000  11.452
 


 magnetization (x)
 
# of ion       s       p       d       tot
------------------------------------------
    1        0.000  -0.000   0.000   0.000
    2        0.000   0.000   0.000   0.000
    3        0.000  -0.000   0.000  -0.000
    4        0.000   0.000   0.000   0.000
--------------------------------------------------
tot          0.000  -0.000   0.000   0.000
 
    CHARGE:  cpu time    0.2577: real time    0.2583
    FORLOC:  cpu time    0.0474: real time    0.0475
    FORNL :  cpu time    0.1229: real time    0.1233
    FORCOR:  cpu time    2.1808: real time    2.1862
    FORHAR:  cpu time    0.2649: real time    0.2657
    MIXING:  cpu time    0.0342: real time    0.0344
    OFIELD:  cpu time    0.0000: real time    0.0000

 VOLUME and BASIS-vectors are now :
 -----------------------------------------------------------------------------
  energy-cutoff  :      600.00
  volume of cell :     8000.00
      direct lattice vectors                 reciprocal lattice vectors
    20.000000000  0.000000000  0.000000000     0.050000000  0.000000000  0.000000000
     0.000000000 20.000000000  0.000000000     0.000000000  0.050000000  0.000000000
     0.000000000  0.000000000 20.000000000     0.000000000  0.000000000  0.050000000

  length of vectors
    20.000000000 20.000000000 20.000000000     0.050000000  0.050000000  0.050000000


 FORCES acting on ions
    electron-ion (+dipol)            ewald-force                    non-local-force                 convergence-correction
 -----------------------------------------------------------------------------------------------
   0.364E+02 -.922E+02 0.191E+02   -.379E+02 0.100E+03 -.207E+02   0.156E+01 -.801E+01 0.162E+01   -.669E-05 0.162E-04 -.751E-06
   -.364E+02 0.199E+02 -.920E+02   0.379E+02 -.216E+02 0.100E+03   -.156E+01 0.169E+01 -.799E+01   0.305E-04 -.657E-05 0.150E-04
   0.218E+03 0.451E+02 0.288E-01   -.244E+03 -.847E+02 0.539E+01   0.264E+02 0.396E+02 -.542E+01   -.102E-03 -.465E-04 0.360E-04
   -.218E+03 -.399E+00 0.451E+02   0.244E+03 0.620E+01 -.847E+02   -.263E+02 -.580E+01 0.396E+02   0.478E-03 -.457E-04 0.426E-04
 -----------------------------------------------------------------------------------------------
   -.211E-02 -.275E+02 -.278E+02   0.000E+00 0.178E-14 -.142E-13   0.168E-02 0.275E+02 0.278E+02   0.400E-03 -.826E-04 0.928E-04
 
 
 POSITION                                       TOTAL-FORCE (eV/Angst)
 -----------------------------------------------------------------------------------
      9.83122     10.94554      9.81340        -0.000204     -0.000149     -0.000895
     11.63942      9.80438     10.94370        -0.000417     -0.000862     -0.000111
     10.00000     10.00000     10.00000         0.000504     -0.000028      0.001329
     11.47054     10.00000     10.00000         0.000117      0.001039     -0.000323
 -----------------------------------------------------------------------------------
    total drift:                               -0.000034     -0.000199     -0.000240


--------------------------------------------------------------------------------------------------------



  FREE ENERGIE OF THE ION-ELECTRON SYSTEM (eV)
  ---------------------------------------------------
  free  energy   TOTEN  =       -18.18675923 eV

  energy  without entropy=      -18.18675923  energy(sigma->0) =      -18.18675923
 


--------------------------------------------------------------------------------------------------------


    POTLOK:  cpu time    2.3207: real time    2.3265


--------------------------------------------------------------------------------------------------------


 Quasi-Newton relaxation of ions (Broydens 2nd method)
  g(Force)  = 0.873E-07   g(Stress)= 0.000E+00

 Reset! Starting new Quasi-Newton update for ions 


--------------------------------------------------------------------------------------------------------


  
 reached required accuracy - stopping structural energy minimisation
 writing wavefunctions
     LOOP+:  cpu time   76.2682: real time   82.8983
    4ORBIT:  cpu time    0.0000: real time    0.0000
 


 total charge     
 
# of ion       s       p       d       tot
------------------------------------------
    1        0.625   0.118   0.000   0.743
    2        0.625   0.118   0.000   0.743
    3        1.581   3.402   0.000   4.984
    4        1.581   3.402   0.000   4.984
--------------------------------------------------
tot          4.413   7.040   0.000  11.452
 


 magnetization (x)
 
# of ion       s       p       d       tot
------------------------------------------
    1        0.000  -0.000   0.000   0.000
    2        0.000   0.000   0.000   0.000
    3        0.000  -0.000   0.000  -0.000
    4        0.000   0.000   0.000   0.000
--------------------------------------------------
tot          0.000  -0.000   0.000   0.000
 

 total amount of memory used by VASP MPI-rank0   212711. kBytes
=======================================================================

   base      :      30000. kBytes
   nonl-proj :       6412. kBytes
   fftplans  :      49695. kBytes
   grid      :     123392. kBytes
   one-center:          6. kBytes
   wavefun   :       3206. kBytes
 
  
  
 General timing and accounting informations for this job:
 ========================================================
  
                  Total CPU time used (sec):      250.281
                            User time (sec):      196.832
                          System time (sec):       53.449
                         Elapsed time (sec):      281.848
  
                   Maximum memory used (kb):      349616.
                   Average memory used (kb):           0.
  
                          Minor page faults:        60455
                          Major page faults:            0
                 Voluntary context switches:        15009
