<?xml version="1.0" encoding="ISO-8859-1"?>
<modeling>
 <generator>
  <i name="program" type="string">vasp </i>
  <i name="version" type="string">5.4.4.18Apr17-6-g9f103f2a35  </i>
  <i name="subversion" type="string">(build Nov 15 2017 09:44:57) complex            parallel </i>
  <i name="platform" type="string">LinuxIFC </i>
  <i name="date" type="string">2019 08 28 </i>
  <i name="time" type="string">20:43:21 </i>
 </generator>
 <incar>
  <i type="string" name="SYSTEM"> H2-o2__ne_000_d_130</i>
  <i type="string" name="PREC">accurate</i>
  <i type="string" name="ALGO"> Normal</i>
  <i type="int" name="ISPIN">     2</i>
  <i type="int" name="ICHARG">     0</i>
  <i type="int" name="NELM">   100</i>
  <i type="int" name="NELMDL">   -12</i>
  <i type="int" name="NELMIN">     4</i>
  <i type="int" name="IBRION">     1</i>
  <i name="EDIFF">      0.00000100</i>
  <i name="EDIFFG">     -0.00100000</i>
  <i type="int" name="NSW">   200</i>
  <i type="int" name="ISIF">     0</i>
  <i type="int" name="ISYM">     0</i>
  <i name="ENCUT">    600.00000000</i>
  <i type="int" name="NEDOS">  1001</i>
  <v name="MAGMOM">      0.60000000      0.60000000      0.60000000      0.60000000</v>
  <i name="NELECT">     14.00000000</i>
  <i type="logical" name="LREAL"> F  </i>
  <i type="int" name="ISMEAR">     0</i>
  <i name="SIGMA">      0.01000000</i>
  <i type="int" name="LMAXMIX">     4</i>
  <i type="logical" name="LWAVE"> T  </i>
  <i type="logical" name="LCHARG"> T  </i>
  <i type="int" name="LORBIT">    11</i>
  <i type="logical" name="LASPH"> T  </i>
  <i type="logical" name="LAECHG"> T  </i>
  <v type="int" name="KPOINT_BSE">    -1     0     0     0</v>
  <i type="int" name="NELM">   100</i>
  <i type="logical" name="LASPH"> T  </i>
 </incar>
 <structure name="primitive_cell" >
  <crystal>
   <varray name="basis" >
    <v>      20.00000000       0.00000000       0.00000000 </v>
    <v>       0.00000000      20.00000000       0.00000000 </v>
    <v>       0.00000000       0.00000000      20.00000000 </v>
   </varray>
   <i name="volume">   8000.00000000 </i>
   <varray name="rec_basis" >
    <v>       0.05000000       0.00000000       0.00000000 </v>
    <v>       0.00000000       0.05000000       0.00000000 </v>
    <v>       0.00000000       0.00000000       0.05000000 </v>
   </varray>
  </crystal>
  <varray name="positions" >
   <v>       0.49156100      -0.45272300       0.49067000 </v>
   <v>      -0.50000000      -0.50000000      -0.50000000 </v>
   <v>      -0.42647300      -0.50000000      -0.50000000 </v>
   <v>      -0.41802900       0.49021900      -0.45281500 </v>
  </varray>
 </structure>
 <varray name="primitive_index" >
  <v type="int" >        1 </v>
  <v type="int" >        3 </v>
  <v type="int" >        4 </v>
  <v type="int" >        2 </v>
 </varray>
 <kpoints>
  <generation param="Gamma">
   <v type="int" name="divisions">       1        1        1 </v>
   <v name="usershift">      0.00000000       0.00000000       0.00000000 </v>
   <v name="genvec1">      1.00000000       0.00000000       0.00000000 </v>
   <v name="genvec2">      0.00000000       1.00000000       0.00000000 </v>
   <v name="genvec3">      0.00000000       0.00000000       1.00000000 </v>
   <v name="shift">      0.00000000       0.00000000       0.00000000 </v>
  </generation>
  <varray name="kpointlist" >
   <v>       0.00000000       0.00000000       0.00000000 </v>
  </varray>
  <varray name="weights" >
   <v>       1.00000000 </v>
  </varray>
 </kpoints>
 <parameters>
  <separator name="general" >
   <i type="string" name="SYSTEM">H2-o2__ne_000_d_130</i>
   <i type="logical" name="LCOMPAT"> F  </i>
  </separator>
  <separator name="electronic" >
   <i type="string" name="PREC">accura</i>
   <i name="ENMAX">    600.00000000</i>
   <i name="ENAUG">    605.39200000</i>
   <i name="EDIFF">      0.00000100</i>
   <i type="int" name="IALGO">    38</i>
   <i type="int" name="IWAVPR">    11</i>
   <i type="int" name="NBANDS">    12</i>
   <i name="NELECT">     14.00000000</i>
   <i type="int" name="TURBO">     0</i>
   <i type="int" name="IRESTART">     0</i>
   <i type="int" name="NREBOOT">     0</i>
   <i type="int" name="NMIN">     0</i>
   <i name="EREF">      0.00000000</i>
   <separator name="electronic smearing" >
    <i type="int" name="ISMEAR">     0</i>
    <i name="SIGMA">      0.01000000</i>
    <i name="KSPACING">      0.50000000</i>
    <i type="logical" name="KGAMMA"> T  </i>
   </separator>
   <separator name="electronic projectors" >
    <i type="logical" name="LREAL"> F  </i>
    <v name="ROPT">      0.00000000      0.00000000</v>
    <i type="int" name="LMAXPAW">  -100</i>
    <i type="int" name="LMAXMIX">     4</i>
    <i type="logical" name="NLSPLINE"> F  </i>
   </separator>
   <separator name="electronic startup" >
    <i type="int" name="ISTART">     1</i>
    <i type="int" name="ICHARG">     0</i>
    <i type="int" name="INIWAV">     1</i>
   </separator>
   <separator name="electronic spin" >
    <i type="int" name="ISPIN">     2</i>
    <i type="logical" name="LNONCOLLINEAR"> F  </i>
    <v name="MAGMOM">      0.60000000      0.60000000      0.60000000      0.60000000</v>
    <i name="NUPDOWN">     -1.00000000</i>
    <i type="logical" name="LSORBIT"> F  </i>
    <v name="SAXIS">      0.00000000      0.00000000      1.00000000</v>
    <i type="logical" name="LSPIRAL"> F  </i>
    <v name="QSPIRAL">      0.00000000      0.00000000      0.00000000</v>
    <i type="logical" name="LZEROZ"> F  </i>
   </separator>
   <separator name="electronic exchange-correlation" >
    <i type="logical" name="LASPH"> T  </i>
    <i type="logical" name="LMETAGGA"> F  </i>
   </separator>
   <separator name="electronic convergence" >
    <i type="int" name="NELM">   100</i>
    <i type="int" name="NELMDL">   -12</i>
    <i type="int" name="NELMIN">     4</i>
    <i name="ENINI">    600.00000000</i>
    <separator name="electronic convergence detail" >
     <i type="logical" name="LDIAG"> T  </i>
     <i type="logical" name="LSUBROT"> F  </i>
     <i name="WEIMIN">      0.00100000</i>
     <i name="EBREAK">      0.00000002</i>
     <i name="DEPER">      0.30000000</i>
     <i type="int" name="NRMM">     4</i>
     <i name="TIME">      0.40000000</i>
    </separator>
   </separator>
   <separator name="electronic mixer" >
    <i name="AMIX">      0.40000000</i>
    <i name="BMIX">      1.00000000</i>
    <i name="AMIN">      0.10000000</i>
    <i name="AMIX_MAG">      1.60000000</i>
    <i name="BMIX_MAG">      1.00000000</i>
    <separator name="electronic mixer details" >
     <i type="int" name="IMIX">     4</i>
     <i type="logical" name="MIXFIRST"> F  </i>
     <i type="int" name="MAXMIX">   -45</i>
     <i name="WC">    100.00000000</i>
     <i type="int" name="INIMIX">     1</i>
     <i type="int" name="MIXPRE">     1</i>
     <i type="int" name="MREMOVE">     5</i>
    </separator>
   </separator>
   <separator name="electronic dipolcorrection" >
    <i type="logical" name="LDIPOL"> F  </i>
    <i type="logical" name="LMONO"> F  </i>
    <i type="int" name="IDIPOL">     0</i>
    <i name="EPSILON">      1.00000000</i>
    <v name="DIPOL">   -100.00000000   -100.00000000   -100.00000000</v>
    <i name="EFIELD">      0.00000000</i>
   </separator>
  </separator>
  <separator name="grids" >
   <i type="int" name="NGX">   160</i>
   <i type="int" name="NGY">   160</i>
   <i type="int" name="NGZ">   160</i>
   <i type="int" name="NGXF">   320</i>
   <i type="int" name="NGYF">   320</i>
   <i type="int" name="NGZF">   320</i>
   <i type="logical" name="ADDGRID"> F  </i>
  </separator>
  <separator name="ionic" >
   <i type="int" name="NSW">   200</i>
   <i type="int" name="IBRION">     1</i>
   <i type="int" name="MDALGO">     0</i>
   <i type="int" name="ISIF">     0</i>
   <i name="PSTRESS">      0.00000000</i>
   <i name="EDIFFG">     -0.00100000</i>
   <i type="int" name="NFREE">     0</i>
   <i name="POTIM">      0.50000000</i>
   <i name="SMASS">     -3.00000000</i>
   <i name="SCALEE">      1.00000000</i>
  </separator>
  <separator name="ionic md" >
   <i name="TEBEG">      0.00010000</i>
   <i name="TEEND">      0.00010000</i>
   <i type="int" name="NBLOCK">     1</i>
   <i type="int" name="KBLOCK">   200</i>
   <i type="int" name="NPACO">   256</i>
   <i name="APACO">     16.00000000</i>
  </separator>
  <separator name="symmetry" >
   <i type="int" name="ISYM">     0</i>
   <i name="SYMPREC">      0.00001000</i>
  </separator>
  <separator name="dos" >
   <i type="int" name="LORBIT">    11</i>
   <v name="RWIGS">     -1.00000000     -1.00000000</v>
   <i type="int" name="NEDOS">  1001</i>
   <i name="EMIN">     10.00000000</i>
   <i name="EMAX">    -10.00000000</i>
   <i name="EFERMI">      0.00000000</i>
  </separator>
  <separator name="writing" >
   <i type="int" name="NWRITE">     2</i>
   <i type="logical" name="LWAVE"> T  </i>
   <i type="logical" name="LDOWNSAMPLE"> F  </i>
   <i type="logical" name="LCHARG"> T  </i>
   <i type="logical" name="LPARD"> F  </i>
   <i type="logical" name="LVTOT"> F  </i>
   <i type="logical" name="LVHAR"> F  </i>
   <i type="logical" name="LELF"> F  </i>
   <i type="logical" name="LOPTICS"> F  </i>
   <v name="STM">      0.00000000      0.00000000      0.00000000      0.00000000      0.00000000      0.00000000      0.00000000</v>
  </separator>
  <separator name="performance" >
   <i type="int" name="NPAR">     4</i>
   <i type="int" name="NSIM">     4</i>
   <i type="int" name="NBLK">    -1</i>
   <i type="logical" name="LPLANE"> T  </i>
   <i type="logical" name="LSCALAPACK"> T  </i>
   <i type="logical" name="LSCAAWARE"> F  </i>
   <i type="logical" name="LSCALU"> F  </i>
   <i type="logical" name="LASYNC"> F  </i>
   <i type="logical" name="LORBITALREAL"> F  </i>
  </separator>
  <separator name="miscellaneous" >
   <i type="int" name="IDIOT">     3</i>
   <i type="int" name="ISPECIAL">     0</i>
   <i type="logical" name="LMUSIC"> F  </i>
   <v name="POMASS">      1.00000000     16.00000000</v>
   <v name="DARWINR">      0.00000000      0.00000000</v>
   <v name="DARWINV">      1.00000000      1.00000000</v>
   <i type="logical" name="LCORR"> T  </i>
  </separator>
  <i type="logical" name="GGA_COMPAT"> T  </i>
  <i type="logical" name="LBERRY"> F  </i>
  <i type="int" name="ICORELEVEL">     0</i>
  <i type="logical" name="LDAU"> F  </i>
  <i type="int" name="I_CONSTRAINED_M">     0</i>
  <separator name="electronic exchange-correlation" >
   <i type="string" name="GGA">--</i>
   <i type="int" name="VOSKOWN">     0</i>
   <i type="logical" name="LHFCALC"> F  </i>
   <i type="string" name="PRECFOCK"></i>
   <i type="logical" name="LSYMGRAD"> F  </i>
   <i type="logical" name="LHFONE"> F  </i>
   <i type="logical" name="LRHFCALC"> F  </i>
   <i type="logical" name="LTHOMAS"> F  </i>
   <i type="logical" name="LMODELHF"> F  </i>
   <i name="ENCUT4O">     -1.00000000</i>
   <i type="int" name="EXXOEP">     0</i>
   <i type="int" name="FOURORBIT">     0</i>
   <i name="AEXX">      0.00000000</i>
   <i name="HFALPHA">      0.00000000</i>
   <i name="MCALPHA">      0.00000000</i>
   <i name="ALDAX">      1.00000000</i>
   <i name="AGGAX">      1.00000000</i>
   <i name="ALDAC">      1.00000000</i>
   <i name="AGGAC">      1.00000000</i>
   <i type="int" name="NKREDX">     1</i>
   <i type="int" name="NKREDY">     1</i>
   <i type="int" name="NKREDZ">     1</i>
   <i type="logical" name="SHIFTRED"> F  </i>
   <i type="logical" name="ODDONLY"> F  </i>
   <i type="logical" name="EVENONLY"> F  </i>
   <i type="int" name="LMAXFOCK">     0</i>
   <i type="int" name="NMAXFOCKAE">     0</i>
   <i type="logical" name="LFOCKAEDFT"> F  </i>
   <i name="HFSCREEN">      0.00000000</i>
   <i name="HFSCREENC">      0.00000000</i>
   <i type="int" name="NBANDSGWLOW">     0</i>
  </separator>
  <separator name="vdW DFT" >
   <i type="logical" name="LUSE_VDW"> F  </i>
   <i name="Zab_VDW">     -0.84910000</i>
   <i name="PARAM1">      0.12340000</i>
   <i name="PARAM2">      1.00000000</i>
   <i name="PARAM3">      0.00000000</i>
  </separator>
  <separator name="model GW" >
   <i type="int" name="MODEL_GW">     0</i>
   <i name="MODEL_EPS0">   1200.00000000</i>
   <i name="MODEL_ALPHA">      1.00000000</i>
  </separator>
  <separator name="linear response parameters" >
   <i type="logical" name="LEPSILON"> F  </i>
   <i type="logical" name="LRPA"> F  </i>
   <i type="logical" name="LNABLA"> F  </i>
   <i type="logical" name="LVEL"> F  </i>
   <i type="int" name="KINTER">     0</i>
   <i name="CSHIFT">      0.10000000</i>
   <i name="OMEGAMAX">     -1.00000000</i>
   <i name="DEG_THRESHOLD">      0.00200000</i>
   <i name="RTIME">     -0.10000000</i>
   <i name="WPLASMAI">      0.00000000</i>
   <v name="DFIELD">      0.00000000      0.00000000      0.00000000</v>
   <v name="WPLASMA">      0.00000000      0.00000000      0.00000000      0.00000000      0.00000000      0.00000000      0.00000000      0.00000000      0.00000000</v>
  </separator>
  <separator name="orbital magnetization" >
   <i type="logical" name="NUCIND"> F  </i>
   <v name="MAGPOS">      0.00000000      0.00000000      0.00000000</v>
   <i type="logical" name="LNICSALL"> T  </i>
   <i type="logical" name="ORBITALMAG"> F  </i>
   <i type="logical" name="LMAGBLOCH"> F  </i>
   <i type="logical" name="LCHIMAG"> F  </i>
   <i type="logical" name="LGAUGE"> T  </i>
   <i type="int" name="MAGATOM">     0</i>
   <v name="MAGDIPOL">      0.00000000      0.00000000      0.00000000</v>
   <v name="AVECCONST">      0.00000000      0.00000000      0.00000000</v>
  </separator>
  <separator name="response functions" >
   <i type="logical" name="LADDER"> F  </i>
   <i type="logical" name="LRPAFORCE"> F  </i>
   <i type="logical" name="LFXC"> F  </i>
   <i type="logical" name="LHARTREE"> T  </i>
   <i type="int" name="IBSE">     0</i>
   <v type="int" name="KPOINT">    -1     0     0     0</v>
   <i type="logical" name="LTCTE"> F  </i>
   <i type="logical" name="LTETE"> F  </i>
   <i type="logical" name="LTRIPLET"> F  </i>
   <i type="logical" name="LFXCEPS"> F  </i>
   <i type="logical" name="LFXHEG"> F  </i>
   <i type="int" name="NATURALO">     2</i>
   <i type="logical" name="L2ORDER"> F  </i>
   <i type="logical" name="LMP2LT"> F  </i>
   <i type="logical" name="LUSEW"> F  </i>
   <i name="ENCUTGW">     -2.00000000</i>
   <i name="ENCUTGWSOFT">     -2.00000000</i>
   <i name="ENCUTLF">     -1.00000000</i>
   <i type="int" name="LMAXMP2">    -1</i>
   <i name="SCISSOR">      0.00000000</i>
   <i type="int" name="NOMEGA">     0</i>
   <i type="int" name="NOMEGAR">     0</i>
   <i type="int" name="NBANDSGW">    -1</i>
   <i type="int" name="NBANDSO">    -1</i>
   <i type="int" name="NBANDSV">    -1</i>
   <i type="int" name="NELM">   100</i>
   <i type="int" name="NELMHF">     1</i>
   <i type="int" name="DIM">     3</i>
   <i type="int" name="ANTIRES">     0</i>
   <i name="OMEGAMAX">    -30.00000000</i>
   <i name="OMEGAMIN">    -30.00000000</i>
   <i name="OMEGATL">   -200.00000000</i>
   <i type="int" name="OMEGAGRID">   140</i>
   <i name="CSHIFT">     -0.10000000</i>
   <i type="logical" name="SELFENERGY"> F  </i>
   <i type="logical" name="LSPECTRAL"> F  </i>
   <i type="logical" name="LSPECTRALGW"> F  </i>
   <i type="logical" name="LSINGLES"> F  </i>
   <i type="logical" name="LFERMIGW"> F  </i>
   <i type="logical" name="ODDONLYGW"> F  </i>
   <i type="logical" name="EVENONLYGW"> F  </i>
   <i type="int" name="NKREDLFX">     1</i>
   <i type="int" name="NKREDLFY">     1</i>
   <i type="int" name="NKREDLFZ">     1</i>
   <i type="int" name="MAXMEM">  2800</i>
   <i type="int" name="TELESCOPE">     0</i>
   <i type="int" name="TAUPAR">     1</i>
   <i type="int" name="OMEGAPAR">    -1</i>
   <i name="LAMBDA">      1.00000000</i>
  </separator>
  <separator name="External order field" >
   <i name="OFIELD_KAPPA">      0.00000000</i>
   <v name="OFIELD_K">      0.00000000      0.00000000      0.00000000</v>
   <i name="OFIELD_Q6_NEAR">      0.00000000</i>
   <i name="OFIELD_Q6_FAR">      0.00000000</i>
   <i name="OFIELD_A">      0.00000000</i>
  </separator>
 </parameters>
 <atominfo>
  <atoms>       4 </atoms>
  <types>       2 </types>
  <array name="atoms" >
   <dimension dim="1">ion</dimension>
   <field type="string">element</field>
   <field type="int">atomtype</field>
   <set>
    <rc><c>H </c><c>   1</c></rc>
    <rc><c>H </c><c>   1</c></rc>
    <rc><c>O </c><c>   2</c></rc>
    <rc><c>O </c><c>   2</c></rc>
   </set>
  </array>
  <array name="atomtypes" >
   <dimension dim="1">type</dimension>
   <field type="int">atomspertype</field>
   <field type="string">element</field>
   <field>mass</field>
   <field>valence</field>
   <field type="string">pseudopotential</field>
   <set>
    <rc><c>   2</c><c>H </c><c>      1.00000000</c><c>      1.00000000</c><c>  PAW_PBE H 15Jun2001                   </c></rc>
    <rc><c>   2</c><c>O </c><c>     16.00000000</c><c>      6.00000000</c><c>  PAW_PBE O 08Apr2002                   </c></rc>
   </set>
  </array>
 </atominfo>
 <structure name="initialpos" >
  <crystal>
   <varray name="basis" >
    <v>      20.00000000       0.00000000       0.00000000 </v>
    <v>       0.00000000      20.00000000       0.00000000 </v>
    <v>       0.00000000       0.00000000      20.00000000 </v>
   </varray>
   <i name="volume">   8000.00000000 </i>
   <varray name="rec_basis" >
    <v>       0.05000000       0.00000000       0.00000000 </v>
    <v>       0.00000000       0.05000000       0.00000000 </v>
    <v>       0.00000000       0.00000000       0.05000000 </v>
   </varray>
  </crystal>
  <varray name="positions" >
   <v>       0.49156100       0.54727700       0.49067000 </v>
   <v>       0.58197100       0.49021900       0.54718500 </v>
   <v>       0.50000000       0.50000000       0.50000000 </v>
   <v>       0.57352700       0.50000000       0.50000000 </v>
  </varray>
  <varray name="selective"  type="logical" >
   <v type="logical" >  T  T  T </v>
   <v type="logical" >  T  T  T </v>
   <v type="logical" >  F  F  F </v>
   <v type="logical" >  T  F  F </v>
  </varray>
  <nose>
   <v>      -3.00000000       0.00000000       0.00010000       0.00010000 </v>
  </nose>
 </structure>
 <calculation>
  <scstep>
   <time name="dav">    0.83    0.83</time>
   <time name="total">    3.18    3.21</time>
   <energy>
    <i name="alphaZ">      0.08958335 </i>
    <i name="ewald">    426.27006076 </i>
    <i name="hartreedc">  -1191.75885802 </i>
    <i name="XCdc">     61.74972846 </i>
    <i name="pawpsdc">    958.91115242 </i>
    <i name="pawaedc">   -962.80390148 </i>
    <i name="eentropy">     -0.00000000 </i>
    <i name="bandstr">   -200.34446235 </i>
    <i name="atom">    889.69993763 </i>
    <i name="e_fr_energy">    -18.18675923 </i>
    <i name="e_wo_entrp">    -18.18675923 </i>
    <i name="e_0_energy">    -18.18675923 </i>
   </energy>
  </scstep>
  <scstep>
   <time name="dav">    0.92    0.92</time>
   <time name="total">    0.92    0.92</time>
   <energy>
    <i name="e_fr_energy">    -18.18675923 </i>
    <i name="e_wo_entrp">    -18.18675923 </i>
    <i name="e_0_energy">    -18.18675923 </i>
   </energy>
  </scstep>
  <scstep>
   <time name="dav">    0.81    0.82</time>
   <time name="total">    0.81    0.82</time>
   <energy>
    <i name="e_fr_energy">    -18.18675923 </i>
    <i name="e_wo_entrp">    -18.18675923 </i>
    <i name="e_0_energy">    -18.18675923 </i>
   </energy>
  </scstep>
  <scstep>
   <time name="dav">    0.91    0.92</time>
   <time name="total">    0.91    0.92</time>
   <energy>
    <i name="e_fr_energy">    -18.18675923 </i>
    <i name="e_wo_entrp">    -18.18675923 </i>
    <i name="e_0_energy">    -18.18675923 </i>
   </energy>
  </scstep>
  <scstep>
   <time name="dav">    0.81    0.82</time>
   <time name="total">    0.81    0.82</time>
   <energy>
    <i name="e_fr_energy">    -18.18675923 </i>
    <i name="e_wo_entrp">    -18.18675923 </i>
    <i name="e_0_energy">    -18.18675923 </i>
   </energy>
  </scstep>
  <scstep>
   <time name="dav">    0.61    0.61</time>
   <time name="total">    0.61    0.61</time>
   <energy>
    <i name="e_fr_energy">    -18.18675923 </i>
    <i name="e_wo_entrp">    -18.18675923 </i>
    <i name="e_0_energy">    -18.18675923 </i>
   </energy>
  </scstep>
  <scstep>
   <time name="dav">    0.61    0.61</time>
   <time name="total">    0.61    0.61</time>
   <energy>
    <i name="e_fr_energy">    -18.18675923 </i>
    <i name="e_wo_entrp">    -18.18675923 </i>
    <i name="e_0_energy">    -18.18675923 </i>
   </energy>
  </scstep>
  <scstep>
   <time name="dav">    0.61    0.61</time>
   <time name="total">    0.61    0.61</time>
   <energy>
    <i name="e_fr_energy">    -18.18675923 </i>
    <i name="e_wo_entrp">    -18.18675923 </i>
    <i name="e_0_energy">    -18.18675923 </i>
   </energy>
  </scstep>
  <scstep>
   <time name="dav">    0.61    0.61</time>
   <time name="total">    0.61    0.61</time>
   <energy>
    <i name="e_fr_energy">    -18.18675923 </i>
    <i name="e_wo_entrp">    -18.18675923 </i>
    <i name="e_0_energy">    -18.18675923 </i>
   </energy>
  </scstep>
  <scstep>
   <time name="dav">    0.61    0.61</time>
   <time name="total">    0.61    0.61</time>
   <energy>
    <i name="e_fr_energy">    -18.18675923 </i>
    <i name="e_wo_entrp">    -18.18675923 </i>
    <i name="e_0_energy">    -18.18675923 </i>
   </energy>
  </scstep>
  <scstep>
   <time name="dav">    0.61    0.61</time>
   <time name="total">    0.61    0.61</time>
   <energy>
    <i name="e_fr_energy">    -18.18675923 </i>
    <i name="e_wo_entrp">    -18.18675923 </i>
    <i name="e_0_energy">    -18.18675923 </i>
   </energy>
  </scstep>
  <scstep>
   <time name="dav">    0.61    0.61</time>
   <time name="total">    0.91    0.92</time>
   <energy>
    <i name="e_fr_energy">    -18.18675923 </i>
    <i name="e_wo_entrp">    -18.18675923 </i>
    <i name="e_0_energy">    -18.18675923 </i>
   </energy>
  </scstep>
  <scstep>
   <time name="dav">    0.81    0.82</time>
   <time name="total">    3.15    3.16</time>
   <energy>
    <i name="alphaZ">      0.08958335 </i>
    <i name="ewald">    426.27006076 </i>
    <i name="hartreedc">  -1191.75958565 </i>
    <i name="XCdc">     61.74976237 </i>
    <i name="pawpsdc">    958.91196408 </i>
    <i name="pawaedc">   -962.80472041 </i>
    <i name="eentropy">     -0.00000000 </i>
    <i name="bandstr">   -200.34376136 </i>
    <i name="atom">    889.69993763 </i>
    <i name="e_fr_energy">    -18.18675923 </i>
    <i name="e_wo_entrp">    -18.18675923 </i>
    <i name="e_0_energy">    -18.18675923 </i>
   </energy>
  </scstep>
  <structure>
   <crystal>
    <varray name="basis" >
     <v>      20.00000000       0.00000000       0.00000000 </v>
     <v>       0.00000000      20.00000000       0.00000000 </v>
     <v>       0.00000000       0.00000000      20.00000000 </v>
    </varray>
    <i name="volume">   8000.00000000 </i>
    <varray name="rec_basis" >
     <v>       0.05000000       0.00000000       0.00000000 </v>
     <v>       0.00000000       0.05000000       0.00000000 </v>
     <v>       0.00000000       0.00000000       0.05000000 </v>
    </varray>
   </crystal>
   <varray name="positions" >
    <v>       0.49156100       0.54727700       0.49067000 </v>
    <v>       0.58197100       0.49021900       0.54718500 </v>
    <v>       0.50000000       0.50000000       0.50000000 </v>
    <v>       0.57352700       0.50000000       0.50000000 </v>
   </varray>
  </structure>
  <varray name="forces" >
   <v>      -0.00020430      -0.00014897      -0.00089506 </v>
   <v>      -0.00041743      -0.00086212      -0.00011097 </v>
   <v>       0.00050424      -0.00002757       0.00132943 </v>
   <v>       0.00011750       0.00103867      -0.00032340 </v>
  </varray>
  <energy>
   <i name="e_fr_energy">    -18.18675923 </i>
   <i name="e_wo_entrp">    -18.18675923 </i>
   <i name="e_0_energy">     -0.00000000 </i>
  </energy>
  <time name="totalsc">   76.27   82.90</time>
  <eigenvalues>
   <array>
    <dimension dim="1">band</dimension>
    <dimension dim="2">kpoint</dimension>
    <dimension dim="3">spin</dimension>
    <field>eigene</field>
    <field>occ</field>
    <set>
     <set comment="spin 1">
      <set comment="kpoint 1">
       <r>  -28.0488    1.0000 </r>
       <r>  -22.5613    1.0000 </r>
       <r>  -13.3191    1.0000 </r>
       <r>  -11.9548    1.0000 </r>
       <r>  -10.2619    1.0000 </r>
       <r>   -7.5285    1.0000 </r>
       <r>   -6.4974    1.0000 </r>
       <r>   -1.6813    0.0000 </r>
       <r>   -0.8634    0.0000 </r>
       <r>    0.0541    0.0000 </r>
       <r>    0.1087    0.0000 </r>
       <r>    0.3423    0.0000 </r>
      </set>
     </set>
     <set comment="spin 2">
      <set comment="kpoint 1">
       <r>  -28.0488    1.0000 </r>
       <r>  -22.5613    1.0000 </r>
       <r>  -13.3191    1.0000 </r>
       <r>  -11.9548    1.0000 </r>
       <r>  -10.2619    1.0000 </r>
       <r>   -7.5285    1.0000 </r>
       <r>   -6.4974    1.0000 </r>
       <r>   -1.6813    0.0000 </r>
       <r>   -0.8634    0.0000 </r>
       <r>    0.0541    0.0000 </r>
       <r>    0.1087    0.0000 </r>
       <r>    0.3423    0.0000 </r>
      </set>
     </set>
    </set>
   </array>
  </eigenvalues>
  <separator name="orbital magnetization" >
   <v name="MAGDIPOLOUT">      0.00000000      0.00000000      0.00000000</v>
  </separator>
  <dos>
   <i name="efermi">     -6.44388648 </i>
   <total>
    <array>
     <dimension dim="1">gridpoints</dimension>
     <dimension dim="2">spin</dimension>
     <field>energy</field>
     <field>total</field>
     <field>integrated</field>
     <set>
      <set comment="spin 1">
       <r>   -29.4683     0.0000     0.0000 </r>
       <r>   -29.4371     0.0000     0.0000 </r>
       <r>   -29.4059     0.0000     0.0000 </r>
       <r>   -29.3746     0.0000     0.0000 </r>
       <r>   -29.3434     0.0000     0.0000 </r>
       <r>   -29.3122     0.0000     0.0000 </r>
       <r>   -29.2810     0.0000     0.0000 </r>
       <r>   -29.2497     0.0000     0.0000 </r>
       <r>   -29.2185     0.0000     0.0000 </r>
       <r>   -29.1873     0.0000     0.0000 </r>
       <r>   -29.1560     0.0000     0.0000 </r>
       <r>   -29.1248     0.0000     0.0000 </r>
       <r>   -29.0936     0.0000     0.0000 </r>
       <r>   -29.0623     0.0000     0.0000 </r>
       <r>   -29.0311     0.0000     0.0000 </r>
       <r>   -28.9999     0.0000     0.0000 </r>
       <r>   -28.9687     0.0000     0.0000 </r>
       <r>   -28.9374     0.0000     0.0000 </r>
       <r>   -28.9062     0.0000     0.0000 </r>
       <r>   -28.8750     0.0000     0.0000 </r>
       <r>   -28.8437     0.0000     0.0000 </r>
       <r>   -28.8125     0.0000     0.0000 </r>
       <r>   -28.7813     0.0000     0.0000 </r>
       <r>   -28.7500     0.0000     0.0000 </r>
       <r>   -28.7188     0.0000     0.0000 </r>
       <r>   -28.6876     0.0000     0.0000 </r>
       <r>   -28.6564     0.0000     0.0000 </r>
       <r>   -28.6251     0.0000     0.0000 </r>
       <r>   -28.5939     0.0000     0.0000 </r>
       <r>   -28.5627     0.0000     0.0000 </r>
       <r>   -28.5314     0.0000     0.0000 </r>
       <r>   -28.5002     0.0000     0.0000 </r>
       <r>   -28.4690     0.0000     0.0000 </r>
       <r>   -28.4377     0.0000     0.0000 </r>
       <r>   -28.4065     0.0000     0.0000 </r>
       <r>   -28.3753     0.0000     0.0000 </r>
       <r>   -28.3441     0.0000     0.0000 </r>
       <r>   -28.3128     0.0000     0.0000 </r>
       <r>   -28.2816     0.0000     0.0000 </r>
       <r>   -28.2504     0.0000     0.0000 </r>
       <r>   -28.2191     0.0000     0.0000 </r>
       <r>   -28.1879     0.0000     0.0000 </r>
       <r>   -28.1567     0.0000     0.0000 </r>
       <r>   -28.1254     0.0000     0.0000 </r>
       <r>   -28.0942     0.0000     0.0000 </r>
       <r>   -28.0630     0.7155     0.0223 </r>
       <r>   -28.0317    31.0487     0.9920 </r>
       <r>   -28.0005     0.2561     1.0000 </r>
       <r>   -27.9693     0.0000     1.0000 </r>
       <r>   -27.9381     0.0000     1.0000 </r>
       <r>   -27.9068     0.0000     1.0000 </r>
       <r>   -27.8756     0.0000     1.0000 </r>
       <r>   -27.8444     0.0000     1.0000 </r>
       <r>   -27.8131     0.0000     1.0000 </r>
       <r>   -27.7819     0.0000     1.0000 </r>
       <r>   -27.7507     0.0000     1.0000 </r>
       <r>   -27.7194     0.0000     1.0000 </r>
       <r>   -27.6882     0.0000     1.0000 </r>
       <r>   -27.6570     0.0000     1.0000 </r>
       <r>   -27.6258     0.0000     1.0000 </r>
       <r>   -27.5945     0.0000     1.0000 </r>
       <r>   -27.5633     0.0000     1.0000 </r>
       <r>   -27.5321     0.0000     1.0000 </r>
       <r>   -27.5008     0.0000     1.0000 </r>
       <r>   -27.4696     0.0000     1.0000 </r>
       <r>   -27.4384     0.0000     1.0000 </r>
       <r>   -27.4071     0.0000     1.0000 </r>
       <r>   -27.3759     0.0000     1.0000 </r>
       <r>   -27.3447     0.0000     1.0000 </r>
       <r>   -27.3135     0.0000     1.0000 </r>
       <r>   -27.2822     0.0000     1.0000 </r>
       <r>   -27.2510     0.0000     1.0000 </r>
       <r>   -27.2198     0.0000     1.0000 </r>
       <r>   -27.1885     0.0000     1.0000 </r>
       <r>   -27.1573     0.0000     1.0000 </r>
       <r>   -27.1261     0.0000     1.0000 </r>
       <r>   -27.0948     0.0000     1.0000 </r>
       <r>   -27.0636     0.0000     1.0000 </r>
       <r>   -27.0324     0.0000     1.0000 </r>
       <r>   -27.0012     0.0000     1.0000 </r>
       <r>   -26.9699     0.0000     1.0000 </r>
       <r>   -26.9387     0.0000     1.0000 </r>
       <r>   -26.9075     0.0000     1.0000 </r>
       <r>   -26.8762     0.0000     1.0000 </r>
       <r>   -26.8450     0.0000     1.0000 </r>
       <r>   -26.8138     0.0000     1.0000 </r>
       <r>   -26.7825     0.0000     1.0000 </r>
       <r>   -26.7513     0.0000     1.0000 </r>
       <r>   -26.7201     0.0000     1.0000 </r>
       <r>   -26.6889     0.0000     1.0000 </r>
       <r>   -26.6576     0.0000     1.0000 </r>
       <r>   -26.6264     0.0000     1.0000 </r>
       <r>   -26.5952     0.0000     1.0000 </r>
       <r>   -26.5639     0.0000     1.0000 </r>
       <r>   -26.5327     0.0000     1.0000 </r>
       <r>   -26.5015     0.0000     1.0000 </r>
       <r>   -26.4702     0.0000     1.0000 </r>
       <r>   -26.4390     0.0000     1.0000 </r>
       <r>   -26.4078     0.0000     1.0000 </r>
       <r>   -26.3765     0.0000     1.0000 </r>
       <r>   -26.3453     0.0000     1.0000 </r>
       <r>   -26.3141     0.0000     1.0000 </r>
       <r>   -26.2829     0.0000     1.0000 </r>
       <r>   -26.2516     0.0000     1.0000 </r>
       <r>   -26.2204     0.0000     1.0000 </r>
       <r>   -26.1892     0.0000     1.0000 </r>
       <r>   -26.1579     0.0000     1.0000 </r>
       <r>   -26.1267     0.0000     1.0000 </r>
       <r>   -26.0955     0.0000     1.0000 </r>
       <r>   -26.0642     0.0000     1.0000 </r>
       <r>   -26.0330     0.0000     1.0000 </r>
       <r>   -26.0018     0.0000     1.0000 </r>
       <r>   -25.9706     0.0000     1.0000 </r>
       <r>   -25.9393     0.0000     1.0000 </r>
       <r>   -25.9081     0.0000     1.0000 </r>
       <r>   -25.8769     0.0000     1.0000 </r>
       <r>   -25.8456     0.0000     1.0000 </r>
       <r>   -25.8144     0.0000     1.0000 </r>
       <r>   -25.7832     0.0000     1.0000 </r>
       <r>   -25.7519     0.0000     1.0000 </r>
       <r>   -25.7207     0.0000     1.0000 </r>
       <r>   -25.6895     0.0000     1.0000 </r>
       <r>   -25.6583     0.0000     1.0000 </r>
       <r>   -25.6270     0.0000     1.0000 </r>
       <r>   -25.5958     0.0000     1.0000 </r>
       <r>   -25.5646     0.0000     1.0000 </r>
       <r>   -25.5333     0.0000     1.0000 </r>
       <r>   -25.5021     0.0000     1.0000 </r>
       <r>   -25.4709     0.0000     1.0000 </r>
       <r>   -25.4396     0.0000     1.0000 </r>
       <r>   -25.4084     0.0000     1.0000 </r>
       <r>   -25.3772     0.0000     1.0000 </r>
       <r>   -25.3460     0.0000     1.0000 </r>
       <r>   -25.3147     0.0000     1.0000 </r>
       <r>   -25.2835     0.0000     1.0000 </r>
       <r>   -25.2523     0.0000     1.0000 </r>
       <r>   -25.2210     0.0000     1.0000 </r>
       <r>   -25.1898     0.0000     1.0000 </r>
       <r>   -25.1586     0.0000     1.0000 </r>
       <r>   -25.1273     0.0000     1.0000 </r>
       <r>   -25.0961     0.0000     1.0000 </r>
       <r>   -25.0649     0.0000     1.0000 </r>
       <r>   -25.0337     0.0000     1.0000 </r>
       <r>   -25.0024     0.0000     1.0000 </r>
       <r>   -24.9712     0.0000     1.0000 </r>
       <r>   -24.9400     0.0000     1.0000 </r>
       <r>   -24.9087     0.0000     1.0000 </r>
       <r>   -24.8775     0.0000     1.0000 </r>
       <r>   -24.8463     0.0000     1.0000 </r>
       <r>   -24.8150     0.0000     1.0000 </r>
       <r>   -24.7838     0.0000     1.0000 </r>
       <r>   -24.7526     0.0000     1.0000 </r>
       <r>   -24.7214     0.0000     1.0000 </r>
       <r>   -24.6901     0.0000     1.0000 </r>
       <r>   -24.6589     0.0000     1.0000 </r>
       <r>   -24.6277     0.0000     1.0000 </r>
       <r>   -24.5964     0.0000     1.0000 </r>
       <r>   -24.5652     0.0000     1.0000 </r>
       <r>   -24.5340     0.0000     1.0000 </r>
       <r>   -24.5027     0.0000     1.0000 </r>
       <r>   -24.4715     0.0000     1.0000 </r>
       <r>   -24.4403     0.0000     1.0000 </r>
       <r>   -24.4090     0.0000     1.0000 </r>
       <r>   -24.3778     0.0000     1.0000 </r>
       <r>   -24.3466     0.0000     1.0000 </r>
       <r>   -24.3154     0.0000     1.0000 </r>
       <r>   -24.2841     0.0000     1.0000 </r>
       <r>   -24.2529     0.0000     1.0000 </r>
       <r>   -24.2217     0.0000     1.0000 </r>
       <r>   -24.1904     0.0000     1.0000 </r>
       <r>   -24.1592     0.0000     1.0000 </r>
       <r>   -24.1280     0.0000     1.0000 </r>
       <r>   -24.0967     0.0000     1.0000 </r>
       <r>   -24.0655     0.0000     1.0000 </r>
       <r>   -24.0343     0.0000     1.0000 </r>
       <r>   -24.0031     0.0000     1.0000 </r>
       <r>   -23.9718     0.0000     1.0000 </r>
       <r>   -23.9406     0.0000     1.0000 </r>
       <r>   -23.9094     0.0000     1.0000 </r>
       <r>   -23.8781     0.0000     1.0000 </r>
       <r>   -23.8469     0.0000     1.0000 </r>
       <r>   -23.8157     0.0000     1.0000 </r>
       <r>   -23.7844     0.0000     1.0000 </r>
       <r>   -23.7532     0.0000     1.0000 </r>
       <r>   -23.7220     0.0000     1.0000 </r>
       <r>   -23.6908     0.0000     1.0000 </r>
       <r>   -23.6595     0.0000     1.0000 </r>
       <r>   -23.6283     0.0000     1.0000 </r>
       <r>   -23.5971     0.0000     1.0000 </r>
       <r>   -23.5658     0.0000     1.0000 </r>
       <r>   -23.5346     0.0000     1.0000 </r>
       <r>   -23.5034     0.0000     1.0000 </r>
       <r>   -23.4721     0.0000     1.0000 </r>
       <r>   -23.4409     0.0000     1.0000 </r>
       <r>   -23.4097     0.0000     1.0000 </r>
       <r>   -23.3785     0.0000     1.0000 </r>
       <r>   -23.3472     0.0000     1.0000 </r>
       <r>   -23.3160     0.0000     1.0000 </r>
       <r>   -23.2848     0.0000     1.0000 </r>
       <r>   -23.2535     0.0000     1.0000 </r>
       <r>   -23.2223     0.0000     1.0000 </r>
       <r>   -23.1911     0.0000     1.0000 </r>
       <r>   -23.1598     0.0000     1.0000 </r>
       <r>   -23.1286     0.0000     1.0000 </r>
       <r>   -23.0974     0.0000     1.0000 </r>
       <r>   -23.0662     0.0000     1.0000 </r>
       <r>   -23.0349     0.0000     1.0000 </r>
       <r>   -23.0037     0.0000     1.0000 </r>
       <r>   -22.9725     0.0000     1.0000 </r>
       <r>   -22.9412     0.0000     1.0000 </r>
       <r>   -22.9100     0.0000     1.0000 </r>
       <r>   -22.8788     0.0000     1.0000 </r>
       <r>   -22.8475     0.0000     1.0000 </r>
       <r>   -22.8163     0.0000     1.0000 </r>
       <r>   -22.7851     0.0000     1.0000 </r>
       <r>   -22.7538     0.0000     1.0000 </r>
       <r>   -22.7226     0.0000     1.0000 </r>
       <r>   -22.6914     0.0000     1.0000 </r>
       <r>   -22.6602     0.0000     1.0000 </r>
       <r>   -22.6289     0.0000     1.0000 </r>
       <r>   -22.5977     0.0000     1.0000 </r>
       <r>   -22.5665     7.5035     1.2343 </r>
       <r>   -22.5352    24.5133     1.9999 </r>
       <r>   -22.5040     0.0036     2.0000 </r>
       <r>   -22.4728     0.0000     2.0000 </r>
       <r>   -22.4415     0.0000     2.0000 </r>
       <r>   -22.4103     0.0000     2.0000 </r>
       <r>   -22.3791     0.0000     2.0000 </r>
       <r>   -22.3479     0.0000     2.0000 </r>
       <r>   -22.3166     0.0000     2.0000 </r>
       <r>   -22.2854     0.0000     2.0000 </r>
       <r>   -22.2542     0.0000     2.0000 </r>
       <r>   -22.2229     0.0000     2.0000 </r>
       <r>   -22.1917     0.0000     2.0000 </r>
       <r>   -22.1605     0.0000     2.0000 </r>
       <r>   -22.1292     0.0000     2.0000 </r>
       <r>   -22.0980     0.0000     2.0000 </r>
       <r>   -22.0668     0.0000     2.0000 </r>
       <r>   -22.0356     0.0000     2.0000 </r>
       <r>   -22.0043     0.0000     2.0000 </r>
       <r>   -21.9731     0.0000     2.0000 </r>
       <r>   -21.9419     0.0000     2.0000 </r>
       <r>   -21.9106     0.0000     2.0000 </r>
       <r>   -21.8794     0.0000     2.0000 </r>
       <r>   -21.8482     0.0000     2.0000 </r>
       <r>   -21.8169     0.0000     2.0000 </r>
       <r>   -21.7857     0.0000     2.0000 </r>
       <r>   -21.7545     0.0000     2.0000 </r>
       <r>   -21.7233     0.0000     2.0000 </r>
       <r>   -21.6920     0.0000     2.0000 </r>
       <r>   -21.6608     0.0000     2.0000 </r>
       <r>   -21.6296     0.0000     2.0000 </r>
       <r>   -21.5983     0.0000     2.0000 </r>
       <r>   -21.5671     0.0000     2.0000 </r>
       <r>   -21.5359     0.0000     2.0000 </r>
       <r>   -21.5046     0.0000     2.0000 </r>
       <r>   -21.4734     0.0000     2.0000 </r>
       <r>   -21.4422     0.0000     2.0000 </r>
       <r>   -21.4110     0.0000     2.0000 </r>
       <r>   -21.3797     0.0000     2.0000 </r>
       <r>   -21.3485     0.0000     2.0000 </r>
       <r>   -21.3173     0.0000     2.0000 </r>
       <r>   -21.2860     0.0000     2.0000 </r>
       <r>   -21.2548     0.0000     2.0000 </r>
       <r>   -21.2236     0.0000     2.0000 </r>
       <r>   -21.1923     0.0000     2.0000 </r>
       <r>   -21.1611     0.0000     2.0000 </r>
       <r>   -21.1299     0.0000     2.0000 </r>
       <r>   -21.0986     0.0000     2.0000 </r>
       <r>   -21.0674     0.0000     2.0000 </r>
       <r>   -21.0362     0.0000     2.0000 </r>
       <r>   -21.0050     0.0000     2.0000 </r>
       <r>   -20.9737     0.0000     2.0000 </r>
       <r>   -20.9425     0.0000     2.0000 </r>
       <r>   -20.9113     0.0000     2.0000 </r>
       <r>   -20.8800     0.0000     2.0000 </r>
       <r>   -20.8488     0.0000     2.0000 </r>
       <r>   -20.8176     0.0000     2.0000 </r>
       <r>   -20.7863     0.0000     2.0000 </r>
       <r>   -20.7551     0.0000     2.0000 </r>
       <r>   -20.7239     0.0000     2.0000 </r>
       <r>   -20.6927     0.0000     2.0000 </r>
       <r>   -20.6614     0.0000     2.0000 </r>
       <r>   -20.6302     0.0000     2.0000 </r>
       <r>   -20.5990     0.0000     2.0000 </r>
       <r>   -20.5677     0.0000     2.0000 </r>
       <r>   -20.5365     0.0000     2.0000 </r>
       <r>   -20.5053     0.0000     2.0000 </r>
       <r>   -20.4740     0.0000     2.0000 </r>
       <r>   -20.4428     0.0000     2.0000 </r>
       <r>   -20.4116     0.0000     2.0000 </r>
       <r>   -20.3804     0.0000     2.0000 </r>
       <r>   -20.3491     0.0000     2.0000 </r>
       <r>   -20.3179     0.0000     2.0000 </r>
       <r>   -20.2867     0.0000     2.0000 </r>
       <r>   -20.2554     0.0000     2.0000 </r>
       <r>   -20.2242     0.0000     2.0000 </r>
       <r>   -20.1930     0.0000     2.0000 </r>
       <r>   -20.1617     0.0000     2.0000 </r>
       <r>   -20.1305     0.0000     2.0000 </r>
       <r>   -20.0993     0.0000     2.0000 </r>
       <r>   -20.0681     0.0000     2.0000 </r>
       <r>   -20.0368     0.0000     2.0000 </r>
       <r>   -20.0056     0.0000     2.0000 </r>
       <r>   -19.9744     0.0000     2.0000 </r>
       <r>   -19.9431     0.0000     2.0000 </r>
       <r>   -19.9119     0.0000     2.0000 </r>
       <r>   -19.8807     0.0000     2.0000 </r>
       <r>   -19.8494     0.0000     2.0000 </r>
       <r>   -19.8182     0.0000     2.0000 </r>
       <r>   -19.7870     0.0000     2.0000 </r>
       <r>   -19.7558     0.0000     2.0000 </r>
       <r>   -19.7245     0.0000     2.0000 </r>
       <r>   -19.6933     0.0000     2.0000 </r>
       <r>   -19.6621     0.0000     2.0000 </r>
       <r>   -19.6308     0.0000     2.0000 </r>
       <r>   -19.5996     0.0000     2.0000 </r>
       <r>   -19.5684     0.0000     2.0000 </r>
       <r>   -19.5371     0.0000     2.0000 </r>
       <r>   -19.5059     0.0000     2.0000 </r>
       <r>   -19.4747     0.0000     2.0000 </r>
       <r>   -19.4434     0.0000     2.0000 </r>
       <r>   -19.4122     0.0000     2.0000 </r>
       <r>   -19.3810     0.0000     2.0000 </r>
       <r>   -19.3498     0.0000     2.0000 </r>
       <r>   -19.3185     0.0000     2.0000 </r>
       <r>   -19.2873     0.0000     2.0000 </r>
       <r>   -19.2561     0.0000     2.0000 </r>
       <r>   -19.2248     0.0000     2.0000 </r>
       <r>   -19.1936     0.0000     2.0000 </r>
       <r>   -19.1624     0.0000     2.0000 </r>
       <r>   -19.1311     0.0000     2.0000 </r>
       <r>   -19.0999     0.0000     2.0000 </r>
       <r>   -19.0687     0.0000     2.0000 </r>
       <r>   -19.0375     0.0000     2.0000 </r>
       <r>   -19.0062     0.0000     2.0000 </r>
       <r>   -18.9750     0.0000     2.0000 </r>
       <r>   -18.9438     0.0000     2.0000 </r>
       <r>   -18.9125     0.0000     2.0000 </r>
       <r>   -18.8813     0.0000     2.0000 </r>
       <r>   -18.8501     0.0000     2.0000 </r>
       <r>   -18.8188     0.0000     2.0000 </r>
       <r>   -18.7876     0.0000     2.0000 </r>
       <r>   -18.7564     0.0000     2.0000 </r>
       <r>   -18.7252     0.0000     2.0000 </r>
       <r>   -18.6939     0.0000     2.0000 </r>
       <r>   -18.6627     0.0000     2.0000 </r>
       <r>   -18.6315     0.0000     2.0000 </r>
       <r>   -18.6002     0.0000     2.0000 </r>
       <r>   -18.5690     0.0000     2.0000 </r>
       <r>   -18.5378     0.0000     2.0000 </r>
       <r>   -18.5065     0.0000     2.0000 </r>
       <r>   -18.4753     0.0000     2.0000 </r>
       <r>   -18.4441     0.0000     2.0000 </r>
       <r>   -18.4129     0.0000     2.0000 </r>
       <r>   -18.3816     0.0000     2.0000 </r>
       <r>   -18.3504     0.0000     2.0000 </r>
       <r>   -18.3192     0.0000     2.0000 </r>
       <r>   -18.2879     0.0000     2.0000 </r>
       <r>   -18.2567     0.0000     2.0000 </r>
       <r>   -18.2255     0.0000     2.0000 </r>
       <r>   -18.1942     0.0000     2.0000 </r>
       <r>   -18.1630     0.0000     2.0000 </r>
       <r>   -18.1318     0.0000     2.0000 </r>
       <r>   -18.1006     0.0000     2.0000 </r>
       <r>   -18.0693     0.0000     2.0000 </r>
       <r>   -18.0381     0.0000     2.0000 </r>
       <r>   -18.0069     0.0000     2.0000 </r>
       <r>   -17.9756     0.0000     2.0000 </r>
       <r>   -17.9444     0.0000     2.0000 </r>
       <r>   -17.9132     0.0000     2.0000 </r>
       <r>   -17.8819     0.0000     2.0000 </r>
       <r>   -17.8507     0.0000     2.0000 </r>
       <r>   -17.8195     0.0000     2.0000 </r>
       <r>   -17.7882     0.0000     2.0000 </r>
       <r>   -17.7570     0.0000     2.0000 </r>
       <r>   -17.7258     0.0000     2.0000 </r>
       <r>   -17.6946     0.0000     2.0000 </r>
       <r>   -17.6633     0.0000     2.0000 </r>
       <r>   -17.6321     0.0000     2.0000 </r>
       <r>   -17.6009     0.0000     2.0000 </r>
       <r>   -17.5696     0.0000     2.0000 </r>
       <r>   -17.5384     0.0000     2.0000 </r>
       <r>   -17.5072     0.0000     2.0000 </r>
       <r>   -17.4759     0.0000     2.0000 </r>
       <r>   -17.4447     0.0000     2.0000 </r>
       <r>   -17.4135     0.0000     2.0000 </r>
       <r>   -17.3823     0.0000     2.0000 </r>
       <r>   -17.3510     0.0000     2.0000 </r>
       <r>   -17.3198     0.0000     2.0000 </r>
       <r>   -17.2886     0.0000     2.0000 </r>
       <r>   -17.2573     0.0000     2.0000 </r>
       <r>   -17.2261     0.0000     2.0000 </r>
       <r>   -17.1949     0.0000     2.0000 </r>
       <r>   -17.1636     0.0000     2.0000 </r>
       <r>   -17.1324     0.0000     2.0000 </r>
       <r>   -17.1012     0.0000     2.0000 </r>
       <r>   -17.0700     0.0000     2.0000 </r>
       <r>   -17.0387     0.0000     2.0000 </r>
       <r>   -17.0075     0.0000     2.0000 </r>
       <r>   -16.9763     0.0000     2.0000 </r>
       <r>   -16.9450     0.0000     2.0000 </r>
       <r>   -16.9138     0.0000     2.0000 </r>
       <r>   -16.8826     0.0000     2.0000 </r>
       <r>   -16.8513     0.0000     2.0000 </r>
       <r>   -16.8201     0.0000     2.0000 </r>
       <r>   -16.7889     0.0000     2.0000 </r>
       <r>   -16.7577     0.0000     2.0000 </r>
       <r>   -16.7264     0.0000     2.0000 </r>
       <r>   -16.6952     0.0000     2.0000 </r>
       <r>   -16.6640     0.0000     2.0000 </r>
       <r>   -16.6327     0.0000     2.0000 </r>
       <r>   -16.6015     0.0000     2.0000 </r>
       <r>   -16.5703     0.0000     2.0000 </r>
       <r>   -16.5390     0.0000     2.0000 </r>
       <r>   -16.5078     0.0000     2.0000 </r>
       <r>   -16.4766     0.0000     2.0000 </r>
       <r>   -16.4454     0.0000     2.0000 </r>
       <r>   -16.4141     0.0000     2.0000 </r>
       <r>   -16.3829     0.0000     2.0000 </r>
       <r>   -16.3517     0.0000     2.0000 </r>
       <r>   -16.3204     0.0000     2.0000 </r>
       <r>   -16.2892     0.0000     2.0000 </r>
       <r>   -16.2580     0.0000     2.0000 </r>
       <r>   -16.2267     0.0000     2.0000 </r>
       <r>   -16.1955     0.0000     2.0000 </r>
       <r>   -16.1643     0.0000     2.0000 </r>
       <r>   -16.1331     0.0000     2.0000 </r>
       <r>   -16.1018     0.0000     2.0000 </r>
       <r>   -16.0706     0.0000     2.0000 </r>
       <r>   -16.0394     0.0000     2.0000 </r>
       <r>   -16.0081     0.0000     2.0000 </r>
       <r>   -15.9769     0.0000     2.0000 </r>
       <r>   -15.9457     0.0000     2.0000 </r>
       <r>   -15.9144     0.0000     2.0000 </r>
       <r>   -15.8832     0.0000     2.0000 </r>
       <r>   -15.8520     0.0000     2.0000 </r>
       <r>   -15.8207     0.0000     2.0000 </r>
       <r>   -15.7895     0.0000     2.0000 </r>
       <r>   -15.7583     0.0000     2.0000 </r>
       <r>   -15.7271     0.0000     2.0000 </r>
       <r>   -15.6958     0.0000     2.0000 </r>
       <r>   -15.6646     0.0000     2.0000 </r>
       <r>   -15.6334     0.0000     2.0000 </r>
       <r>   -15.6021     0.0000     2.0000 </r>
       <r>   -15.5709     0.0000     2.0000 </r>
       <r>   -15.5397     0.0000     2.0000 </r>
       <r>   -15.5084     0.0000     2.0000 </r>
       <r>   -15.4772     0.0000     2.0000 </r>
       <r>   -15.4460     0.0000     2.0000 </r>
       <r>   -15.4148     0.0000     2.0000 </r>
       <r>   -15.3835     0.0000     2.0000 </r>
       <r>   -15.3523     0.0000     2.0000 </r>
       <r>   -15.3211     0.0000     2.0000 </r>
       <r>   -15.2898     0.0000     2.0000 </r>
       <r>   -15.2586     0.0000     2.0000 </r>
       <r>   -15.2274     0.0000     2.0000 </r>
       <r>   -15.1961     0.0000     2.0000 </r>
       <r>   -15.1649     0.0000     2.0000 </r>
       <r>   -15.1337     0.0000     2.0000 </r>
       <r>   -15.1025     0.0000     2.0000 </r>
       <r>   -15.0712     0.0000     2.0000 </r>
       <r>   -15.0400     0.0000     2.0000 </r>
       <r>   -15.0088     0.0000     2.0000 </r>
       <r>   -14.9775     0.0000     2.0000 </r>
       <r>   -14.9463     0.0000     2.0000 </r>
       <r>   -14.9151     0.0000     2.0000 </r>
       <r>   -14.8838     0.0000     2.0000 </r>
       <r>   -14.8526     0.0000     2.0000 </r>
       <r>   -14.8214     0.0000     2.0000 </r>
       <r>   -14.7902     0.0000     2.0000 </r>
       <r>   -14.7589     0.0000     2.0000 </r>
       <r>   -14.7277     0.0000     2.0000 </r>
       <r>   -14.6965     0.0000     2.0000 </r>
       <r>   -14.6652     0.0000     2.0000 </r>
       <r>   -14.6340     0.0000     2.0000 </r>
       <r>   -14.6028     0.0000     2.0000 </r>
       <r>   -14.5715     0.0000     2.0000 </r>
       <r>   -14.5403     0.0000     2.0000 </r>
       <r>   -14.5091     0.0000     2.0000 </r>
       <r>   -14.4779     0.0000     2.0000 </r>
       <r>   -14.4466     0.0000     2.0000 </r>
       <r>   -14.4154     0.0000     2.0000 </r>
       <r>   -14.3842     0.0000     2.0000 </r>
       <r>   -14.3529     0.0000     2.0000 </r>
       <r>   -14.3217     0.0000     2.0000 </r>
       <r>   -14.2905     0.0000     2.0000 </r>
       <r>   -14.2592     0.0000     2.0000 </r>
       <r>   -14.2280     0.0000     2.0000 </r>
       <r>   -14.1968     0.0000     2.0000 </r>
       <r>   -14.1655     0.0000     2.0000 </r>
       <r>   -14.1343     0.0000     2.0000 </r>
       <r>   -14.1031     0.0000     2.0000 </r>
       <r>   -14.0719     0.0000     2.0000 </r>
       <r>   -14.0406     0.0000     2.0000 </r>
       <r>   -14.0094     0.0000     2.0000 </r>
       <r>   -13.9782     0.0000     2.0000 </r>
       <r>   -13.9469     0.0000     2.0000 </r>
       <r>   -13.9157     0.0000     2.0000 </r>
       <r>   -13.8845     0.0000     2.0000 </r>
       <r>   -13.8532     0.0000     2.0000 </r>
       <r>   -13.8220     0.0000     2.0000 </r>
       <r>   -13.7908     0.0000     2.0000 </r>
       <r>   -13.7596     0.0000     2.0000 </r>
       <r>   -13.7283     0.0000     2.0000 </r>
       <r>   -13.6971     0.0000     2.0000 </r>
       <r>   -13.6659     0.0000     2.0000 </r>
       <r>   -13.6346     0.0000     2.0000 </r>
       <r>   -13.6034     0.0000     2.0000 </r>
       <r>   -13.5722     0.0000     2.0000 </r>
       <r>   -13.5409     0.0000     2.0000 </r>
       <r>   -13.5097     0.0000     2.0000 </r>
       <r>   -13.4785     0.0000     2.0000 </r>
       <r>   -13.4473     0.0000     2.0000 </r>
       <r>   -13.4160     0.0000     2.0000 </r>
       <r>   -13.3848     0.0000     2.0000 </r>
       <r>   -13.3536     0.0000     2.0000 </r>
       <r>   -13.3223    10.2983     2.3216 </r>
       <r>   -13.2911    21.7207     3.0000 </r>
       <r>   -13.2599     0.0012     3.0000 </r>
       <r>   -13.2286     0.0000     3.0000 </r>
       <r>   -13.1974     0.0000     3.0000 </r>
       <r>   -13.1662     0.0000     3.0000 </r>
       <r>   -13.1350     0.0000     3.0000 </r>
       <r>   -13.1037     0.0000     3.0000 </r>
       <r>   -13.0725     0.0000     3.0000 </r>
       <r>   -13.0413     0.0000     3.0000 </r>
       <r>   -13.0100     0.0000     3.0000 </r>
       <r>   -12.9788     0.0000     3.0000 </r>
       <r>   -12.9476     0.0000     3.0000 </r>
       <r>   -12.9163     0.0000     3.0000 </r>
       <r>   -12.8851     0.0000     3.0000 </r>
       <r>   -12.8539     0.0000     3.0000 </r>
       <r>   -12.8227     0.0000     3.0000 </r>
       <r>   -12.7914     0.0000     3.0000 </r>
       <r>   -12.7602     0.0000     3.0000 </r>
       <r>   -12.7290     0.0000     3.0000 </r>
       <r>   -12.6977     0.0000     3.0000 </r>
       <r>   -12.6665     0.0000     3.0000 </r>
       <r>   -12.6353     0.0000     3.0000 </r>
       <r>   -12.6040     0.0000     3.0000 </r>
       <r>   -12.5728     0.0000     3.0000 </r>
       <r>   -12.5416     0.0000     3.0000 </r>
       <r>   -12.5103     0.0000     3.0000 </r>
       <r>   -12.4791     0.0000     3.0000 </r>
       <r>   -12.4479     0.0000     3.0000 </r>
       <r>   -12.4167     0.0000     3.0000 </r>
       <r>   -12.3854     0.0000     3.0000 </r>
       <r>   -12.3542     0.0000     3.0000 </r>
       <r>   -12.3230     0.0000     3.0000 </r>
       <r>   -12.2917     0.0000     3.0000 </r>
       <r>   -12.2605     0.0000     3.0000 </r>
       <r>   -12.2293     0.0000     3.0000 </r>
       <r>   -12.1980     0.0000     3.0000 </r>
       <r>   -12.1668     0.0000     3.0000 </r>
       <r>   -12.1356     0.0000     3.0000 </r>
       <r>   -12.1044     0.0000     3.0000 </r>
       <r>   -12.0731     0.0000     3.0000 </r>
       <r>   -12.0419     0.0000     3.0000 </r>
       <r>   -12.0107     0.0000     3.0000 </r>
       <r>   -11.9794     0.0080     3.0002 </r>
       <r>   -11.9482    26.4079     3.8250 </r>
       <r>   -11.9170     5.6044     4.0000 </r>
       <r>   -11.8857     0.0000     4.0000 </r>
       <r>   -11.8545     0.0000     4.0000 </r>
       <r>   -11.8233     0.0000     4.0000 </r>
       <r>   -11.7921     0.0000     4.0000 </r>
       <r>   -11.7608     0.0000     4.0000 </r>
       <r>   -11.7296     0.0000     4.0000 </r>
       <r>   -11.6984     0.0000     4.0000 </r>
       <r>   -11.6671     0.0000     4.0000 </r>
       <r>   -11.6359     0.0000     4.0000 </r>
       <r>   -11.6047     0.0000     4.0000 </r>
       <r>   -11.5734     0.0000     4.0000 </r>
       <r>   -11.5422     0.0000     4.0000 </r>
       <r>   -11.5110     0.0000     4.0000 </r>
       <r>   -11.4798     0.0000     4.0000 </r>
       <r>   -11.4485     0.0000     4.0000 </r>
       <r>   -11.4173     0.0000     4.0000 </r>
       <r>   -11.3861     0.0000     4.0000 </r>
       <r>   -11.3548     0.0000     4.0000 </r>
       <r>   -11.3236     0.0000     4.0000 </r>
       <r>   -11.2924     0.0000     4.0000 </r>
       <r>   -11.2611     0.0000     4.0000 </r>
       <r>   -11.2299     0.0000     4.0000 </r>
       <r>   -11.1987     0.0000     4.0000 </r>
       <r>   -11.1675     0.0000     4.0000 </r>
       <r>   -11.1362     0.0000     4.0000 </r>
       <r>   -11.1050     0.0000     4.0000 </r>
       <r>   -11.0738     0.0000     4.0000 </r>
       <r>   -11.0425     0.0000     4.0000 </r>
       <r>   -11.0113     0.0000     4.0000 </r>
       <r>   -10.9801     0.0000     4.0000 </r>
       <r>   -10.9488     0.0000     4.0000 </r>
       <r>   -10.9176     0.0000     4.0000 </r>
       <r>   -10.8864     0.0000     4.0000 </r>
       <r>   -10.8551     0.0000     4.0000 </r>
       <r>   -10.8239     0.0000     4.0000 </r>
       <r>   -10.7927     0.0000     4.0000 </r>
       <r>   -10.7615     0.0000     4.0000 </r>
       <r>   -10.7302     0.0000     4.0000 </r>
       <r>   -10.6990     0.0000     4.0000 </r>
       <r>   -10.6678     0.0000     4.0000 </r>
       <r>   -10.6365     0.0000     4.0000 </r>
       <r>   -10.6053     0.0000     4.0000 </r>
       <r>   -10.5741     0.0000     4.0000 </r>
       <r>   -10.5428     0.0000     4.0000 </r>
       <r>   -10.5116     0.0000     4.0000 </r>
       <r>   -10.4804     0.0000     4.0000 </r>
       <r>   -10.4492     0.0000     4.0000 </r>
       <r>   -10.4179     0.0000     4.0000 </r>
       <r>   -10.3867     0.0000     4.0000 </r>
       <r>   -10.3555     0.0000     4.0000 </r>
       <r>   -10.3242     0.0000     4.0000 </r>
       <r>   -10.2930     0.0002     4.0000 </r>
       <r>   -10.2618    16.2598     4.5078 </r>
       <r>   -10.2305    15.7601     5.0000 </r>
       <r>   -10.1993     0.0001     5.0000 </r>
       <r>   -10.1681     0.0000     5.0000 </r>
       <r>   -10.1369     0.0000     5.0000 </r>
       <r>   -10.1056     0.0000     5.0000 </r>
       <r>   -10.0744     0.0000     5.0000 </r>
       <r>   -10.0432     0.0000     5.0000 </r>
       <r>   -10.0119     0.0000     5.0000 </r>
       <r>    -9.9807     0.0000     5.0000 </r>
       <r>    -9.9495     0.0000     5.0000 </r>
       <r>    -9.9182     0.0000     5.0000 </r>
       <r>    -9.8870     0.0000     5.0000 </r>
       <r>    -9.8558     0.0000     5.0000 </r>
       <r>    -9.8246     0.0000     5.0000 </r>
       <r>    -9.7933     0.0000     5.0000 </r>
       <r>    -9.7621     0.0000     5.0000 </r>
       <r>    -9.7309     0.0000     5.0000 </r>
       <r>    -9.6996     0.0000     5.0000 </r>
       <r>    -9.6684     0.0000     5.0000 </r>
       <r>    -9.6372     0.0000     5.0000 </r>
       <r>    -9.6059     0.0000     5.0000 </r>
       <r>    -9.5747     0.0000     5.0000 </r>
       <r>    -9.5435     0.0000     5.0000 </r>
       <r>    -9.5123     0.0000     5.0000 </r>
       <r>    -9.4810     0.0000     5.0000 </r>
       <r>    -9.4498     0.0000     5.0000 </r>
       <r>    -9.4186     0.0000     5.0000 </r>
       <r>    -9.3873     0.0000     5.0000 </r>
       <r>    -9.3561     0.0000     5.0000 </r>
       <r>    -9.3249     0.0000     5.0000 </r>
       <r>    -9.2936     0.0000     5.0000 </r>
       <r>    -9.2624     0.0000     5.0000 </r>
       <r>    -9.2312     0.0000     5.0000 </r>
       <r>    -9.1999     0.0000     5.0000 </r>
       <r>    -9.1687     0.0000     5.0000 </r>
       <r>    -9.1375     0.0000     5.0000 </r>
       <r>    -9.1063     0.0000     5.0000 </r>
       <r>    -9.0750     0.0000     5.0000 </r>
       <r>    -9.0438     0.0000     5.0000 </r>
       <r>    -9.0126     0.0000     5.0000 </r>
       <r>    -8.9813     0.0000     5.0000 </r>
       <r>    -8.9501     0.0000     5.0000 </r>
       <r>    -8.9189     0.0000     5.0000 </r>
       <r>    -8.8876     0.0000     5.0000 </r>
       <r>    -8.8564     0.0000     5.0000 </r>
       <r>    -8.8252     0.0000     5.0000 </r>
       <r>    -8.7940     0.0000     5.0000 </r>
       <r>    -8.7627     0.0000     5.0000 </r>
       <r>    -8.7315     0.0000     5.0000 </r>
       <r>    -8.7003     0.0000     5.0000 </r>
       <r>    -8.6690     0.0000     5.0000 </r>
       <r>    -8.6378     0.0000     5.0000 </r>
       <r>    -8.6066     0.0000     5.0000 </r>
       <r>    -8.5753     0.0000     5.0000 </r>
       <r>    -8.5441     0.0000     5.0000 </r>
       <r>    -8.5129     0.0000     5.0000 </r>
       <r>    -8.4817     0.0000     5.0000 </r>
       <r>    -8.4504     0.0000     5.0000 </r>
       <r>    -8.4192     0.0000     5.0000 </r>
       <r>    -8.3880     0.0000     5.0000 </r>
       <r>    -8.3567     0.0000     5.0000 </r>
       <r>    -8.3255     0.0000     5.0000 </r>
       <r>    -8.2943     0.0000     5.0000 </r>
       <r>    -8.2630     0.0000     5.0000 </r>
       <r>    -8.2318     0.0000     5.0000 </r>
       <r>    -8.2006     0.0000     5.0000 </r>
       <r>    -8.1694     0.0000     5.0000 </r>
       <r>    -8.1381     0.0000     5.0000 </r>
       <r>    -8.1069     0.0000     5.0000 </r>
       <r>    -8.0757     0.0000     5.0000 </r>
       <r>    -8.0444     0.0000     5.0000 </r>
       <r>    -8.0132     0.0000     5.0000 </r>
       <r>    -7.9820     0.0000     5.0000 </r>
       <r>    -7.9507     0.0000     5.0000 </r>
       <r>    -7.9195     0.0000     5.0000 </r>
       <r>    -7.8883     0.0000     5.0000 </r>
       <r>    -7.8571     0.0000     5.0000 </r>
       <r>    -7.8258     0.0000     5.0000 </r>
       <r>    -7.7946     0.0000     5.0000 </r>
       <r>    -7.7634     0.0000     5.0000 </r>
       <r>    -7.7321     0.0000     5.0000 </r>
       <r>    -7.7009     0.0000     5.0000 </r>
       <r>    -7.6697     0.0000     5.0000 </r>
       <r>    -7.6384     0.0000     5.0000 </r>
       <r>    -7.6072     0.0000     5.0000 </r>
       <r>    -7.5760     0.0000     5.0000 </r>
       <r>    -7.5448     0.3506     5.0109 </r>
       <r>    -7.5135    31.1313     5.9832 </r>
       <r>    -7.4823     0.5384     6.0000 </r>
       <r>    -7.4511     0.0000     6.0000 </r>
       <r>    -7.4198     0.0000     6.0000 </r>
       <r>    -7.3886     0.0000     6.0000 </r>
       <r>    -7.3574     0.0000     6.0000 </r>
       <r>    -7.3261     0.0000     6.0000 </r>
       <r>    -7.2949     0.0000     6.0000 </r>
       <r>    -7.2637     0.0000     6.0000 </r>
       <r>    -7.2324     0.0000     6.0000 </r>
       <r>    -7.2012     0.0000     6.0000 </r>
       <r>    -7.1700     0.0000     6.0000 </r>
       <r>    -7.1388     0.0000     6.0000 </r>
       <r>    -7.1075     0.0000     6.0000 </r>
       <r>    -7.0763     0.0000     6.0000 </r>
       <r>    -7.0451     0.0000     6.0000 </r>
       <r>    -7.0138     0.0000     6.0000 </r>
       <r>    -6.9826     0.0000     6.0000 </r>
       <r>    -6.9514     0.0000     6.0000 </r>
       <r>    -6.9201     0.0000     6.0000 </r>
       <r>    -6.8889     0.0000     6.0000 </r>
       <r>    -6.8577     0.0000     6.0000 </r>
       <r>    -6.8265     0.0000     6.0000 </r>
       <r>    -6.7952     0.0000     6.0000 </r>
       <r>    -6.7640     0.0000     6.0000 </r>
       <r>    -6.7328     0.0000     6.0000 </r>
       <r>    -6.7015     0.0000     6.0000 </r>
       <r>    -6.6703     0.0000     6.0000 </r>
       <r>    -6.6391     0.0000     6.0000 </r>
       <r>    -6.6078     0.0000     6.0000 </r>
       <r>    -6.5766     0.0000     6.0000 </r>
       <r>    -6.5454     0.0000     6.0000 </r>
       <r>    -6.5142     0.2878     6.0090 </r>
       <r>    -6.4829    31.0871     6.9798 </r>
       <r>    -6.4517     0.6454     7.0000 </r>
       <r>    -6.4205     0.0000     7.0000 </r>
       <r>    -6.3892     0.0000     7.0000 </r>
       <r>    -6.3580     0.0000     7.0000 </r>
       <r>    -6.3268     0.0000     7.0000 </r>
       <r>    -6.2955     0.0000     7.0000 </r>
       <r>    -6.2643     0.0000     7.0000 </r>
       <r>    -6.2331     0.0000     7.0000 </r>
       <r>    -6.2019     0.0000     7.0000 </r>
       <r>    -6.1706     0.0000     7.0000 </r>
       <r>    -6.1394     0.0000     7.0000 </r>
       <r>    -6.1082     0.0000     7.0000 </r>
       <r>    -6.0769     0.0000     7.0000 </r>
       <r>    -6.0457     0.0000     7.0000 </r>
       <r>    -6.0145     0.0000     7.0000 </r>
       <r>    -5.9832     0.0000     7.0000 </r>
       <r>    -5.9520     0.0000     7.0000 </r>
       <r>    -5.9208     0.0000     7.0000 </r>
       <r>    -5.8896     0.0000     7.0000 </r>
       <r>    -5.8583     0.0000     7.0000 </r>
       <r>    -5.8271     0.0000     7.0000 </r>
       <r>    -5.7959     0.0000     7.0000 </r>
       <r>    -5.7646     0.0000     7.0000 </r>
       <r>    -5.7334     0.0000     7.0000 </r>
       <r>    -5.7022     0.0000     7.0000 </r>
       <r>    -5.6709     0.0000     7.0000 </r>
       <r>    -5.6397     0.0000     7.0000 </r>
       <r>    -5.6085     0.0000     7.0000 </r>
       <r>    -5.5772     0.0000     7.0000 </r>
       <r>    -5.5460     0.0000     7.0000 </r>
       <r>    -5.5148     0.0000     7.0000 </r>
       <r>    -5.4836     0.0000     7.0000 </r>
       <r>    -5.4523     0.0000     7.0000 </r>
       <r>    -5.4211     0.0000     7.0000 </r>
       <r>    -5.3899     0.0000     7.0000 </r>
       <r>    -5.3586     0.0000     7.0000 </r>
       <r>    -5.3274     0.0000     7.0000 </r>
       <r>    -5.2962     0.0000     7.0000 </r>
       <r>    -5.2649     0.0000     7.0000 </r>
       <r>    -5.2337     0.0000     7.0000 </r>
       <r>    -5.2025     0.0000     7.0000 </r>
       <r>    -5.1713     0.0000     7.0000 </r>
       <r>    -5.1400     0.0000     7.0000 </r>
       <r>    -5.1088     0.0000     7.0000 </r>
       <r>    -5.0776     0.0000     7.0000 </r>
       <r>    -5.0463     0.0000     7.0000 </r>
       <r>    -5.0151     0.0000     7.0000 </r>
       <r>    -4.9839     0.0000     7.0000 </r>
       <r>    -4.9526     0.0000     7.0000 </r>
       <r>    -4.9214     0.0000     7.0000 </r>
       <r>    -4.8902     0.0000     7.0000 </r>
       <r>    -4.8590     0.0000     7.0000 </r>
       <r>    -4.8277     0.0000     7.0000 </r>
       <r>    -4.7965     0.0000     7.0000 </r>
       <r>    -4.7653     0.0000     7.0000 </r>
       <r>    -4.7340     0.0000     7.0000 </r>
       <r>    -4.7028     0.0000     7.0000 </r>
       <r>    -4.6716     0.0000     7.0000 </r>
       <r>    -4.6403     0.0000     7.0000 </r>
       <r>    -4.6091     0.0000     7.0000 </r>
       <r>    -4.5779     0.0000     7.0000 </r>
       <r>    -4.5467     0.0000     7.0000 </r>
       <r>    -4.5154     0.0000     7.0000 </r>
       <r>    -4.4842     0.0000     7.0000 </r>
       <r>    -4.4530     0.0000     7.0000 </r>
       <r>    -4.4217     0.0000     7.0000 </r>
       <r>    -4.3905     0.0000     7.0000 </r>
       <r>    -4.3593     0.0000     7.0000 </r>
       <r>    -4.3280     0.0000     7.0000 </r>
       <r>    -4.2968     0.0000     7.0000 </r>
       <r>    -4.2656     0.0000     7.0000 </r>
       <r>    -4.2344     0.0000     7.0000 </r>
       <r>    -4.2031     0.0000     7.0000 </r>
       <r>    -4.1719     0.0000     7.0000 </r>
       <r>    -4.1407     0.0000     7.0000 </r>
       <r>    -4.1094     0.0000     7.0000 </r>
       <r>    -4.0782     0.0000     7.0000 </r>
       <r>    -4.0470     0.0000     7.0000 </r>
       <r>    -4.0157     0.0000     7.0000 </r>
       <r>    -3.9845     0.0000     7.0000 </r>
       <r>    -3.9533     0.0000     7.0000 </r>
       <r>    -3.9220     0.0000     7.0000 </r>
       <r>    -3.8908     0.0000     7.0000 </r>
       <r>    -3.8596     0.0000     7.0000 </r>
       <r>    -3.8284     0.0000     7.0000 </r>
       <r>    -3.7971     0.0000     7.0000 </r>
       <r>    -3.7659     0.0000     7.0000 </r>
       <r>    -3.7347     0.0000     7.0000 </r>
       <r>    -3.7034     0.0000     7.0000 </r>
       <r>    -3.6722     0.0000     7.0000 </r>
       <r>    -3.6410     0.0000     7.0000 </r>
       <r>    -3.6097     0.0000     7.0000 </r>
       <r>    -3.5785     0.0000     7.0000 </r>
       <r>    -3.5473     0.0000     7.0000 </r>
       <r>    -3.5161     0.0000     7.0000 </r>
       <r>    -3.4848     0.0000     7.0000 </r>
       <r>    -3.4536     0.0000     7.0000 </r>
       <r>    -3.4224     0.0000     7.0000 </r>
       <r>    -3.3911     0.0000     7.0000 </r>
       <r>    -3.3599     0.0000     7.0000 </r>
       <r>    -3.3287     0.0000     7.0000 </r>
       <r>    -3.2974     0.0000     7.0000 </r>
       <r>    -3.2662     0.0000     7.0000 </r>
       <r>    -3.2350     0.0000     7.0000 </r>
       <r>    -3.2038     0.0000     7.0000 </r>
       <r>    -3.1725     0.0000     7.0000 </r>
       <r>    -3.1413     0.0000     7.0000 </r>
       <r>    -3.1101     0.0000     7.0000 </r>
       <r>    -3.0788     0.0000     7.0000 </r>
       <r>    -3.0476     0.0000     7.0000 </r>
       <r>    -3.0164     0.0000     7.0000 </r>
       <r>    -2.9851     0.0000     7.0000 </r>
       <r>    -2.9539     0.0000     7.0000 </r>
       <r>    -2.9227     0.0000     7.0000 </r>
       <r>    -2.8915     0.0000     7.0000 </r>
       <r>    -2.8602     0.0000     7.0000 </r>
       <r>    -2.8290     0.0000     7.0000 </r>
       <r>    -2.7978     0.0000     7.0000 </r>
       <r>    -2.7665     0.0000     7.0000 </r>
       <r>    -2.7353     0.0000     7.0000 </r>
       <r>    -2.7041     0.0000     7.0000 </r>
       <r>    -2.6728     0.0000     7.0000 </r>
       <r>    -2.6416     0.0000     7.0000 </r>
       <r>    -2.6104     0.0000     7.0000 </r>
       <r>    -2.5792     0.0000     7.0000 </r>
       <r>    -2.5479     0.0000     7.0000 </r>
       <r>    -2.5167     0.0000     7.0000 </r>
       <r>    -2.4855     0.0000     7.0000 </r>
       <r>    -2.4542     0.0000     7.0000 </r>
       <r>    -2.4230     0.0000     7.0000 </r>
       <r>    -2.3918     0.0000     7.0000 </r>
       <r>    -2.3605     0.0000     7.0000 </r>
       <r>    -2.3293     0.0000     7.0000 </r>
       <r>    -2.2981     0.0000     7.0000 </r>
       <r>    -2.2668     0.0000     7.0000 </r>
       <r>    -2.2356     0.0000     7.0000 </r>
       <r>    -2.2044     0.0000     7.0000 </r>
       <r>    -2.1732     0.0000     7.0000 </r>
       <r>    -2.1419     0.0000     7.0000 </r>
       <r>    -2.1107     0.0000     7.0000 </r>
       <r>    -2.0795     0.0000     7.0000 </r>
       <r>    -2.0482     0.0000     7.0000 </r>
       <r>    -2.0170     0.0000     7.0000 </r>
       <r>    -1.9858     0.0000     7.0000 </r>
       <r>    -1.9545     0.0000     7.0000 </r>
       <r>    -1.9233     0.0000     7.0000 </r>
       <r>    -1.8921     0.0000     7.0000 </r>
       <r>    -1.8609     0.0000     7.0000 </r>
       <r>    -1.8296     0.0000     7.0000 </r>
       <r>    -1.7984     0.0000     7.0000 </r>
       <r>    -1.7672     0.0000     7.0000 </r>
       <r>    -1.7359     0.0000     7.0000 </r>
       <r>    -1.7047     0.0153     7.0005 </r>
       <r>    -1.6735    27.7534     7.8672 </r>
       <r>    -1.6422     4.2516     8.0000 </r>
       <r>    -1.6110     0.0000     8.0000 </r>
       <r>    -1.5798     0.0000     8.0000 </r>
       <r>    -1.5486     0.0000     8.0000 </r>
       <r>    -1.5173     0.0000     8.0000 </r>
       <r>    -1.4861     0.0000     8.0000 </r>
       <r>    -1.4549     0.0000     8.0000 </r>
       <r>    -1.4236     0.0000     8.0000 </r>
       <r>    -1.3924     0.0000     8.0000 </r>
       <r>    -1.3612     0.0000     8.0000 </r>
       <r>    -1.3299     0.0000     8.0000 </r>
       <r>    -1.2987     0.0000     8.0000 </r>
       <r>    -1.2675     0.0000     8.0000 </r>
       <r>    -1.2363     0.0000     8.0000 </r>
       <r>    -1.2050     0.0000     8.0000 </r>
       <r>    -1.1738     0.0000     8.0000 </r>
       <r>    -1.1426     0.0000     8.0000 </r>
       <r>    -1.1113     0.0000     8.0000 </r>
       <r>    -1.0801     0.0000     8.0000 </r>
       <r>    -1.0489     0.0000     8.0000 </r>
       <r>    -1.0176     0.0000     8.0000 </r>
       <r>    -0.9864     0.0000     8.0000 </r>
       <r>    -0.9552     0.0000     8.0000 </r>
       <r>    -0.9240     0.0000     8.0000 </r>
       <r>    -0.8927     0.0005     8.0000 </r>
       <r>    -0.8615    19.3651     8.6048 </r>
       <r>    -0.8303    12.6547     9.0000 </r>
       <r>    -0.7990     0.0000     9.0000 </r>
       <r>    -0.7678     0.0000     9.0000 </r>
       <r>    -0.7366     0.0000     9.0000 </r>
       <r>    -0.7053     0.0000     9.0000 </r>
       <r>    -0.6741     0.0000     9.0000 </r>
       <r>    -0.6429     0.0000     9.0000 </r>
       <r>    -0.6117     0.0000     9.0000 </r>
       <r>    -0.5804     0.0000     9.0000 </r>
       <r>    -0.5492     0.0000     9.0000 </r>
       <r>    -0.5180     0.0000     9.0000 </r>
       <r>    -0.4867     0.0000     9.0000 </r>
       <r>    -0.4555     0.0000     9.0000 </r>
       <r>    -0.4243     0.0000     9.0000 </r>
       <r>    -0.3930     0.0000     9.0000 </r>
       <r>    -0.3618     0.0000     9.0000 </r>
       <r>    -0.3306     0.0000     9.0000 </r>
       <r>    -0.2993     0.0000     9.0000 </r>
       <r>    -0.2681     0.0000     9.0000 </r>
       <r>    -0.2369     0.0000     9.0000 </r>
       <r>    -0.2057     0.0000     9.0000 </r>
       <r>    -0.1744     0.0000     9.0000 </r>
       <r>    -0.1432     0.0000     9.0000 </r>
       <r>    -0.1120     0.0000     9.0000 </r>
       <r>    -0.0807     0.0000     9.0000 </r>
       <r>    -0.0495     0.0000     9.0000 </r>
       <r>    -0.0183     0.0000     9.0000 </r>
       <r>     0.0130     0.0000     9.0000 </r>
       <r>     0.0442     2.5675     9.0802 </r>
       <r>     0.0754    29.4114     9.9987 </r>
       <r>     0.1066    12.4415    10.3873 </r>
       <r>     0.1379    19.6196    11.0000 </r>
       <r>     0.1691     0.0006    11.0000 </r>
       <r>     0.2003     0.0000    11.0000 </r>
       <r>     0.2316     0.0000    11.0000 </r>
       <r>     0.2628     0.0000    11.0000 </r>
       <r>     0.2940     0.0000    11.0000 </r>
       <r>     0.3253     0.2561    11.0080 </r>
       <r>     0.3565    31.0488    11.9777 </r>
       <r>     0.3877     0.7154    12.0000 </r>
       <r>     0.4189     0.0000    12.0000 </r>
       <r>     0.4502     0.0000    12.0000 </r>
       <r>     0.4814     0.0000    12.0000 </r>
       <r>     0.5126     0.0000    12.0000 </r>
       <r>     0.5439     0.0000    12.0000 </r>
       <r>     0.5751     0.0000    12.0000 </r>
       <r>     0.6063     0.0000    12.0000 </r>
       <r>     0.6376     0.0000    12.0000 </r>
       <r>     0.6688     0.0000    12.0000 </r>
       <r>     0.7000     0.0000    12.0000 </r>
       <r>     0.7312     0.0000    12.0000 </r>
       <r>     0.7625     0.0000    12.0000 </r>
       <r>     0.7937     0.0000    12.0000 </r>
       <r>     0.8249     0.0000    12.0000 </r>
       <r>     0.8562     0.0000    12.0000 </r>
       <r>     0.8874     0.0000    12.0000 </r>
       <r>     0.9186     0.0000    12.0000 </r>
       <r>     0.9499     0.0000    12.0000 </r>
       <r>     0.9811     0.0000    12.0000 </r>
       <r>     1.0123     0.0000    12.0000 </r>
       <r>     1.0435     0.0000    12.0000 </r>
       <r>     1.0748     0.0000    12.0000 </r>
       <r>     1.1060     0.0000    12.0000 </r>
       <r>     1.1372     0.0000    12.0000 </r>
       <r>     1.1685     0.0000    12.0000 </r>
       <r>     1.1997     0.0000    12.0000 </r>
       <r>     1.2309     0.0000    12.0000 </r>
       <r>     1.2622     0.0000    12.0000 </r>
       <r>     1.2934     0.0000    12.0000 </r>
       <r>     1.3246     0.0000    12.0000 </r>
       <r>     1.3559     0.0000    12.0000 </r>
       <r>     1.3871     0.0000    12.0000 </r>
       <r>     1.4183     0.0000    12.0000 </r>
       <r>     1.4495     0.0000    12.0000 </r>
       <r>     1.4808     0.0000    12.0000 </r>
       <r>     1.5120     0.0000    12.0000 </r>
       <r>     1.5432     0.0000    12.0000 </r>
       <r>     1.5745     0.0000    12.0000 </r>
       <r>     1.6057     0.0000    12.0000 </r>
       <r>     1.6369     0.0000    12.0000 </r>
       <r>     1.6682     0.0000    12.0000 </r>
       <r>     1.6994     0.0000    12.0000 </r>
       <r>     1.7306     0.0000    12.0000 </r>
       <r>     1.7618     0.0000    12.0000 </r>
      </set>
      <set comment="spin 2">
       <r>   -29.4683     0.0000     0.0000 </r>
       <r>   -29.4371     0.0000     0.0000 </r>
       <r>   -29.4059     0.0000     0.0000 </r>
       <r>   -29.3746     0.0000     0.0000 </r>
       <r>   -29.3434     0.0000     0.0000 </r>
       <r>   -29.3122     0.0000     0.0000 </r>
       <r>   -29.2810     0.0000     0.0000 </r>
       <r>   -29.2497     0.0000     0.0000 </r>
       <r>   -29.2185     0.0000     0.0000 </r>
       <r>   -29.1873     0.0000     0.0000 </r>
       <r>   -29.1560     0.0000     0.0000 </r>
       <r>   -29.1248     0.0000     0.0000 </r>
       <r>   -29.0936     0.0000     0.0000 </r>
       <r>   -29.0623     0.0000     0.0000 </r>
       <r>   -29.0311     0.0000     0.0000 </r>
       <r>   -28.9999     0.0000     0.0000 </r>
       <r>   -28.9687     0.0000     0.0000 </r>
       <r>   -28.9374     0.0000     0.0000 </r>
       <r>   -28.9062     0.0000     0.0000 </r>
       <r>   -28.8750     0.0000     0.0000 </r>
       <r>   -28.8437     0.0000     0.0000 </r>
       <r>   -28.8125     0.0000     0.0000 </r>
       <r>   -28.7813     0.0000     0.0000 </r>
       <r>   -28.7500     0.0000     0.0000 </r>
       <r>   -28.7188     0.0000     0.0000 </r>
       <r>   -28.6876     0.0000     0.0000 </r>
       <r>   -28.6564     0.0000     0.0000 </r>
       <r>   -28.6251     0.0000     0.0000 </r>
       <r>   -28.5939     0.0000     0.0000 </r>
       <r>   -28.5627     0.0000     0.0000 </r>
       <r>   -28.5314     0.0000     0.0000 </r>
       <r>   -28.5002     0.0000     0.0000 </r>
       <r>   -28.4690     0.0000     0.0000 </r>
       <r>   -28.4377     0.0000     0.0000 </r>
       <r>   -28.4065     0.0000     0.0000 </r>
       <r>   -28.3753     0.0000     0.0000 </r>
       <r>   -28.3441     0.0000     0.0000 </r>
       <r>   -28.3128     0.0000     0.0000 </r>
       <r>   -28.2816     0.0000     0.0000 </r>
       <r>   -28.2504     0.0000     0.0000 </r>
       <r>   -28.2191     0.0000     0.0000 </r>
       <r>   -28.1879     0.0000     0.0000 </r>
       <r>   -28.1567     0.0000     0.0000 </r>
       <r>   -28.1254     0.0000     0.0000 </r>
       <r>   -28.0942     0.0000     0.0000 </r>
       <r>   -28.0630     0.7155     0.0223 </r>
       <r>   -28.0317    31.0487     0.9920 </r>
       <r>   -28.0005     0.2561     1.0000 </r>
       <r>   -27.9693     0.0000     1.0000 </r>
       <r>   -27.9381     0.0000     1.0000 </r>
       <r>   -27.9068     0.0000     1.0000 </r>
       <r>   -27.8756     0.0000     1.0000 </r>
       <r>   -27.8444     0.0000     1.0000 </r>
       <r>   -27.8131     0.0000     1.0000 </r>
       <r>   -27.7819     0.0000     1.0000 </r>
       <r>   -27.7507     0.0000     1.0000 </r>
       <r>   -27.7194     0.0000     1.0000 </r>
       <r>   -27.6882     0.0000     1.0000 </r>
       <r>   -27.6570     0.0000     1.0000 </r>
       <r>   -27.6258     0.0000     1.0000 </r>
       <r>   -27.5945     0.0000     1.0000 </r>
       <r>   -27.5633     0.0000     1.0000 </r>
       <r>   -27.5321     0.0000     1.0000 </r>
       <r>   -27.5008     0.0000     1.0000 </r>
       <r>   -27.4696     0.0000     1.0000 </r>
       <r>   -27.4384     0.0000     1.0000 </r>
       <r>   -27.4071     0.0000     1.0000 </r>
       <r>   -27.3759     0.0000     1.0000 </r>
       <r>   -27.3447     0.0000     1.0000 </r>
       <r>   -27.3135     0.0000     1.0000 </r>
       <r>   -27.2822     0.0000     1.0000 </r>
       <r>   -27.2510     0.0000     1.0000 </r>
       <r>   -27.2198     0.0000     1.0000 </r>
       <r>   -27.1885     0.0000     1.0000 </r>
       <r>   -27.1573     0.0000     1.0000 </r>
       <r>   -27.1261     0.0000     1.0000 </r>
       <r>   -27.0948     0.0000     1.0000 </r>
       <r>   -27.0636     0.0000     1.0000 </r>
       <r>   -27.0324     0.0000     1.0000 </r>
       <r>   -27.0012     0.0000     1.0000 </r>
       <r>   -26.9699     0.0000     1.0000 </r>
       <r>   -26.9387     0.0000     1.0000 </r>
       <r>   -26.9075     0.0000     1.0000 </r>
       <r>   -26.8762     0.0000     1.0000 </r>
       <r>   -26.8450     0.0000     1.0000 </r>
       <r>   -26.8138     0.0000     1.0000 </r>
       <r>   -26.7825     0.0000     1.0000 </r>
       <r>   -26.7513     0.0000     1.0000 </r>
       <r>   -26.7201     0.0000     1.0000 </r>
       <r>   -26.6889     0.0000     1.0000 </r>
       <r>   -26.6576     0.0000     1.0000 </r>
       <r>   -26.6264     0.0000     1.0000 </r>
       <r>   -26.5952     0.0000     1.0000 </r>
       <r>   -26.5639     0.0000     1.0000 </r>
       <r>   -26.5327     0.0000     1.0000 </r>
       <r>   -26.5015     0.0000     1.0000 </r>
       <r>   -26.4702     0.0000     1.0000 </r>
       <r>   -26.4390     0.0000     1.0000 </r>
       <r>   -26.4078     0.0000     1.0000 </r>
       <r>   -26.3765     0.0000     1.0000 </r>
       <r>   -26.3453     0.0000     1.0000 </r>
       <r>   -26.3141     0.0000     1.0000 </r>
       <r>   -26.2829     0.0000     1.0000 </r>
       <r>   -26.2516     0.0000     1.0000 </r>
       <r>   -26.2204     0.0000     1.0000 </r>
[...]
        <r>     0.0442     0.0010     0.0000     0.0025     0.0002     0.0000     0.0000     0.0000     0.0000     0.0000 </r>
        <r>     0.0754     0.0113     0.0000     0.0287     0.0023     0.0000     0.0000     0.0000     0.0000     0.0000 </r>
        <r>     0.1066     0.0042     0.0256     0.1765     0.4061     0.0000     0.0000     0.0000     0.0000     0.0000 </r>
        <r>     0.1379     0.0066     0.0405     0.2792     0.6426     0.0000     0.0000     0.0000     0.0000     0.0000 </r>
        <r>     0.1691     0.0000     0.0000     0.0000     0.0000     0.0000     0.0000     0.0000     0.0000     0.0000 </r>
        <r>     0.2003     0.0000     0.0000     0.0000     0.0000     0.0000     0.0000     0.0000     0.0000     0.0000 </r>
        <r>     0.2316     0.0000     0.0000     0.0000     0.0000     0.0000     0.0000     0.0000     0.0000     0.0000 </r>
        <r>     0.2628     0.0000     0.0000     0.0000     0.0000     0.0000     0.0000     0.0000     0.0000     0.0000 </r>
        <r>     0.2940     0.0000     0.0000     0.0000     0.0000     0.0000     0.0000     0.0000     0.0000     0.0000 </r>
        <r>     0.3253     0.0001     0.0002     0.0000     0.0000     0.0000     0.0000     0.0000     0.0000     0.0000 </r>
        <r>     0.3565     0.0074     0.0199     0.0030     0.0033     0.0000     0.0000     0.0000     0.0000     0.0000 </r>
        <r>     0.3877     0.0002     0.0005     0.0001     0.0001     0.0000     0.0000     0.0000     0.0000     0.0000 </r>
        <r>     0.4189     0.0000     0.0000     0.0000     0.0000     0.0000     0.0000     0.0000     0.0000     0.0000 </r>
        <r>     0.4502     0.0000     0.0000     0.0000     0.0000     0.0000     0.0000     0.0000     0.0000     0.0000 </r>
        <r>     0.4814     0.0000     0.0000     0.0000     0.0000     0.0000     0.0000     0.0000     0.0000     0.0000 </r>
        <r>     0.5126     0.0000     0.0000     0.0000     0.0000     0.0000     0.0000     0.0000     0.0000     0.0000 </r>
        <r>     0.5439     0.0000     0.0000     0.0000     0.0000     0.0000     0.0000     0.0000     0.0000     0.0000 </r>
        <r>     0.5751     0.0000     0.0000     0.0000     0.0000     0.0000     0.0000     0.0000     0.0000     0.0000 </r>
        <r>     0.6063     0.0000     0.0000     0.0000     0.0000     0.0000     0.0000     0.0000     0.0000     0.0000 </r>
        <r>     0.6376     0.0000     0.0000     0.0000     0.0000     0.0000     0.0000     0.0000     0.0000     0.0000 </r>
        <r>     0.6688     0.0000     0.0000     0.0000     0.0000     0.0000     0.0000     0.0000     0.0000     0.0000 </r>
        <r>     0.7000     0.0000     0.0000     0.0000     0.0000     0.0000     0.0000     0.0000     0.0000     0.0000 </r>
        <r>     0.7312     0.0000     0.0000     0.0000     0.0000     0.0000     0.0000     0.0000     0.0000     0.0000 </r>
        <r>     0.7625     0.0000     0.0000     0.0000     0.0000     0.0000     0.0000     0.0000     0.0000     0.0000 </r>
        <r>     0.7937     0.0000     0.0000     0.0000     0.0000     0.0000     0.0000     0.0000     0.0000     0.0000 </r>
        <r>     0.8249     0.0000     0.0000     0.0000     0.0000     0.0000     0.0000     0.0000     0.0000     0.0000 </r>
        <r>     0.8562     0.0000     0.0000     0.0000     0.0000     0.0000     0.0000     0.0000     0.0000     0.0000 </r>
        <r>     0.8874     0.0000     0.0000     0.0000     0.0000     0.0000     0.0000     0.0000     0.0000     0.0000 </r>
        <r>     0.9186     0.0000     0.0000     0.0000     0.0000     0.0000     0.0000     0.0000     0.0000     0.0000 </r>
        <r>     0.9499     0.0000     0.0000     0.0000     0.0000     0.0000     0.0000     0.0000     0.0000     0.0000 </r>
        <r>     0.9811     0.0000     0.0000     0.0000     0.0000     0.0000     0.0000     0.0000     0.0000     0.0000 </r>
        <r>     1.0123     0.0000     0.0000     0.0000     0.0000     0.0000     0.0000     0.0000     0.0000     0.0000 </r>
        <r>     1.0435     0.0000     0.0000     0.0000     0.0000     0.0000     0.0000     0.0000     0.0000     0.0000 </r>
        <r>     1.0748     0.0000     0.0000     0.0000     0.0000     0.0000     0.0000     0.0000     0.0000     0.0000 </r>
        <r>     1.1060     0.0000     0.0000     0.0000     0.0000     0.0000     0.0000     0.0000     0.0000     0.0000 </r>
        <r>     1.1372     0.0000     0.0000     0.0000     0.0000     0.0000     0.0000     0.0000     0.0000     0.0000 </r>
        <r>     1.1685     0.0000     0.0000     0.0000     0.0000     0.0000     0.0000     0.0000     0.0000     0.0000 </r>
        <r>     1.1997     0.0000     0.0000     0.0000     0.0000     0.0000     0.0000     0.0000     0.0000     0.0000 </r>
        <r>     1.2309     0.0000     0.0000     0.0000     0.0000     0.0000     0.0000     0.0000     0.0000     0.0000 </r>
        <r>     1.2622     0.0000     0.0000     0.0000     0.0000     0.0000     0.0000     0.0000     0.0000     0.0000 </r>
        <r>     1.2934     0.0000     0.0000     0.0000     0.0000     0.0000     0.0000     0.0000     0.0000     0.0000 </r>
        <r>     1.3246     0.0000     0.0000     0.0000     0.0000     0.0000     0.0000     0.0000     0.0000     0.0000 </r>
        <r>     1.3559     0.0000     0.0000     0.0000     0.0000     0.0000     0.0000     0.0000     0.0000     0.0000 </r>
        <r>     1.3871     0.0000     0.0000     0.0000     0.0000     0.0000     0.0000     0.0000     0.0000     0.0000 </r>
        <r>     1.4183     0.0000     0.0000     0.0000     0.0000     0.0000     0.0000     0.0000     0.0000     0.0000 </r>
        <r>     1.4495     0.0000     0.0000     0.0000     0.0000     0.0000     0.0000     0.0000     0.0000     0.0000 </r>
        <r>     1.4808     0.0000     0.0000     0.0000     0.0000     0.0000     0.0000     0.0000     0.0000     0.0000 </r>
        <r>     1.5120     0.0000     0.0000     0.0000     0.0000     0.0000     0.0000     0.0000     0.0000     0.0000 </r>
        <r>     1.5432     0.0000     0.0000     0.0000     0.0000     0.0000     0.0000     0.0000     0.0000     0.0000 </r>
        <r>     1.5745     0.0000     0.0000     0.0000     0.0000     0.0000     0.0000     0.0000     0.0000     0.0000 </r>
        <r>     1.6057     0.0000     0.0000     0.0000     0.0000     0.0000     0.0000     0.0000     0.0000     0.0000 </r>
        <r>     1.6369     0.0000     0.0000     0.0000     0.0000     0.0000     0.0000     0.0000     0.0000     0.0000 </r>
        <r>     1.6682     0.0000     0.0000     0.0000     0.0000     0.0000     0.0000     0.0000     0.0000     0.0000 </r>
        <r>     1.6994     0.0000     0.0000     0.0000     0.0000     0.0000     0.0000     0.0000     0.0000     0.0000 </r>
        <r>     1.7306     0.0000     0.0000     0.0000     0.0000     0.0000     0.0000     0.0000     0.0000     0.0000 </r>
        <r>     1.7618     0.0000     0.0000     0.0000     0.0000     0.0000     0.0000     0.0000     0.0000     0.0000 </r>
       </set>
      </set>
     </set>
    </array>
   </partial>
  </dos>
  <projected>
   <eigenvalues>
    <array>
     <dimension dim="1">band</dimension>
     <dimension dim="2">kpoint</dimension>
     <dimension dim="3">spin</dimension>
     <field>eigene</field>
     <field>occ</field>
     <set>
      <set comment="spin 1">
       <set comment="kpoint 1">
        <r>  -28.0488    1.0000 </r>
        <r>  -22.5613    1.0000 </r>
        <r>  -13.3191    1.0000 </r>
        <r>  -11.9548    1.0000 </r>
        <r>  -10.2619    1.0000 </r>
        <r>   -7.5285    1.0000 </r>
        <r>   -6.4974    1.0000 </r>
        <r>   -1.6813    0.0000 </r>
        <r>   -0.8634    0.0000 </r>
        <r>    0.0541    0.0000 </r>
        <r>    0.1087    0.0000 </r>
        <r>    0.3423    0.0000 </r>
       </set>
      </set>
      <set comment="spin 2">
       <set comment="kpoint 1">
        <r>  -28.0488    1.0000 </r>
        <r>  -22.5613    1.0000 </r>
        <r>  -13.3191    1.0000 </r>
        <r>  -11.9548    1.0000 </r>
        <r>  -10.2619    1.0000 </r>
        <r>   -7.5285    1.0000 </r>
        <r>   -6.4974    1.0000 </r>
        <r>   -1.6813    0.0000 </r>
        <r>   -0.8634    0.0000 </r>
        <r>    0.0541    0.0000 </r>
        <r>    0.1087    0.0000 </r>
        <r>    0.3423    0.0000 </r>
       </set>
      </set>
     </set>
    </array>
   </eigenvalues>
   <array>
    <dimension dim="1">ion</dimension>
    <dimension dim="2">band</dimension>
    <dimension dim="3">kpoint</dimension>
    <dimension dim="4">spin</dimension>
    <field>    s</field>
    <field>   py</field>
    <field>   pz</field>
    <field>   px</field>
    <field>  dxy</field>
    <field>  dyz</field>
    <field>  dz2</field>
    <field>  dxz</field>
    <field>x2-y2</field>
    <set>
     <set comment="spin1">
      <set comment="kpoint 1">
       <set comment="band 1">
        <r>  0.0404  0.0080  0.0003  0.0008  0.0000  0.0000  0.0000  0.0000  0.0000 </r>
        <r>  0.0404  0.0004  0.0079  0.0008  0.0000  0.0000  0.0000  0.0000  0.0000 </r>
        <r>  0.3668  0.0087  0.0001  0.0256  0.0000  0.0000  0.0000  0.0000  0.0000 </r>
        <r>  0.3668  0.0001  0.0087  0.0256  0.0000  0.0000  0.0000  0.0000  0.0000 </r>
       </set>
       <set comment="band 2">
        <r>  0.0809  0.0155  0.0006  0.0002  0.0000  0.0000  0.0000  0.0000  0.0000 </r>
        <r>  0.0809  0.0006  0.0155  0.0002  0.0000  0.0000  0.0000  0.0000  0.0000 </r>
        <r>  0.3356  0.0283  0.0019  0.0128  0.0000  0.0000  0.0000  0.0000  0.0000 </r>
        <r>  0.3356  0.0020  0.0282  0.0129  0.0000  0.0000  0.0000  0.0000  0.0000 </r>
       </set>
       <set comment="band 3">
        <r>  0.0846  0.0092  0.0009  0.0006  0.0000  0.0000  0.0000  0.0000  0.0000 </r>
        <r>  0.0846  0.0010  0.0091  0.0006  0.0000  0.0000  0.0000  0.0000  0.0000 </r>
        <r>  0.0000  0.1241  0.0007  0.2134  0.0000  0.0000  0.0000  0.0000  0.0000 </r>
        <r>  0.0000  0.0005  0.1243  0.2134  0.0000  0.0000  0.0000  0.0000  0.0000 </r>
       </set>
       <set comment="band 4">
        <r>  0.0597  0.0039  0.0001  0.0013  0.0000  0.0000  0.0000  0.0000  0.0000 </r>
        <r>  0.0597  0.0001  0.0039  0.0013  0.0000  0.0000  0.0000  0.0000  0.0000 </r>
        <r>  0.0493  0.1952  0.0687  0.0029  0.0000  0.0000  0.0000  0.0000  0.0000 </r>
        <r>  0.0493  0.0709  0.1929  0.0029  0.0000  0.0000  0.0000  0.0000  0.0000 </r>
       </set>
       <set comment="band 5">
        <r>  0.0112  0.0001  0.0016  0.0032  0.0000  0.0000  0.0000  0.0000  0.0000 </r>
        <r>  0.0112  0.0016  0.0001  0.0032  0.0000  0.0000  0.0000  0.0000  0.0000 </r>
        <r>  0.0258  0.1329  0.0547  0.1369  0.0000  0.0000  0.0000  0.0000  0.0000 </r>
        <r>  0.0258  0.0530  0.1345  0.1369  0.0000  0.0000  0.0000  0.0000  0.0000 </r>
       </set>
       <set comment="band 6">
        <r>  0.0242  0.0025  0.0032  0.0003  0.0000  0.0000  0.0000  0.0000  0.0000 </r>
        <r>  0.0242  0.0031  0.0025  0.0003  0.0000  0.0000  0.0000  0.0000  0.0000 </r>
        <r>  0.0086  0.0295  0.2887  0.0222  0.0000  0.0000  0.0000  0.0000  0.0000 </r>
        <r>  0.0086  0.2904  0.0277  0.0222  0.0000  0.0000  0.0000  0.0000  0.0000 </r>
       </set>
       <set comment="band 7">
        <r>  0.0115  0.0001  0.0064  0.0000  0.0000  0.0000  0.0000  0.0000  0.0000 </r>
        <r>  0.0115  0.0064  0.0001  0.0000  0.0000  0.0000  0.0000  0.0000  0.0000 </r>
        <r>  0.0045  0.0730  0.2807  0.0003  0.0000  0.0000  0.0000  0.0000  0.0000 </r>
        <r>  0.0045  0.2779  0.0757  0.0003  0.0000  0.0000  0.0000  0.0000  0.0000 </r>
       </set>
       <set comment="band 8">
        <r>  0.0015  0.0012  0.0001  0.0080  0.0000  0.0000  0.0000  0.0000  0.0000 </r>
        <r>  0.0015  0.0001  0.0012  0.0080  0.0000  0.0000  0.0000  0.0000  0.0000 </r>
        <r>  0.0400  0.0026  0.0000  0.2549  0.0000  0.0000  0.0000  0.0000  0.0000 </r>
        <r>  0.0400  0.0000  0.0026  0.2548  0.0000  0.0000  0.0000  0.0000  0.0000 </r>
       </set>
       <set comment="band 9">
        <r>  0.0048  0.0096  0.0003  0.0001  0.0000  0.0000  0.0000  0.0000  0.0000 </r>
        <r>  0.0048  0.0004  0.0096  0.0001  0.0000  0.0000  0.0000  0.0000  0.0000 </r>
        <r>  0.0118  0.0186  0.0001  0.0038  0.0000  0.0000  0.0000  0.0000  0.0000 </r>
        <r>  0.0118  0.0002  0.0185  0.0038  0.0000  0.0000  0.0000  0.0000  0.0000 </r>
       </set>
       <set comment="band 10">
        <r>  0.0003  0.0004  0.0000  0.0000  0.0000  0.0000  0.0000  0.0000  0.0000 </r>
        <r>  0.0003  0.0000  0.0004  0.0000  0.0000  0.0000  0.0000  0.0000  0.0000 </r>
        <r>  0.0004  0.0009  0.0000  0.0001  0.0000  0.0000  0.0000  0.0000  0.0000 </r>
        <r>  0.0004  0.0000  0.0010  0.0001  0.0000  0.0000  0.0000  0.0000  0.0000 </r>
       </set>
       <set comment="band 11">
        <r>  0.0023  0.0048  0.0002  0.0001  0.0000  0.0000  0.0000  0.0000  0.0000 </r>
        <r>  0.0023  0.0002  0.0047  0.0001  0.0000  0.0000  0.0000  0.0000  0.0000 </r>
        <r>  0.0003  0.0144  0.0020  0.0328  0.0000  0.0000  0.0000  0.0000  0.0000 </r>
        <r>  0.0003  0.0021  0.0142  0.0328  0.0000  0.0000  0.0000  0.0000  0.0000 </r>
       </set>
       <set comment="band 12">
        <r>  0.0000  0.0000  0.0000  0.0000  0.0000  0.0000  0.0000  0.0000  0.0000 </r>
        <r>  0.0000  0.0000  0.0000  0.0000  0.0000  0.0000  0.0000  0.0000  0.0000 </r>
        <r>  0.0002  0.0001  0.0007  0.0001  0.0000  0.0000  0.0000  0.0000  0.0000 </r>
        <r>  0.0002  0.0006  0.0001  0.0001  0.0000  0.0000  0.0000  0.0000  0.0000 </r>
       </set>
      </set>
     </set>
     <set comment="spin2">
      <set comment="kpoint 1">
       <set comment="band 1">
        <r>  0.0404  0.0080  0.0003  0.0008  0.0000  0.0000  0.0000  0.0000  0.0000 </r>
        <r>  0.0404  0.0004  0.0079  0.0008  0.0000  0.0000  0.0000  0.0000  0.0000 </r>
        <r>  0.3668  0.0087  0.0001  0.0256  0.0000  0.0000  0.0000  0.0000  0.0000 </r>
        <r>  0.3668  0.0001  0.0087  0.0256  0.0000  0.0000  0.0000  0.0000  0.0000 </r>
       </set>
       <set comment="band 2">
        <r>  0.0809  0.0155  0.0006  0.0002  0.0000  0.0000  0.0000  0.0000  0.0000 </r>
        <r>  0.0809  0.0006  0.0155  0.0002  0.0000  0.0000  0.0000  0.0000  0.0000 </r>
        <r>  0.3356  0.0283  0.0019  0.0128  0.0000  0.0000  0.0000  0.0000  0.0000 </r>
        <r>  0.3356  0.0020  0.0282  0.0129  0.0000  0.0000  0.0000  0.0000  0.0000 </r>
       </set>
       <set comment="band 3">
        <r>  0.0846  0.0092  0.0009  0.0006  0.0000  0.0000  0.0000  0.0000  0.0000 </r>
        <r>  0.0846  0.0010  0.0091  0.0006  0.0000  0.0000  0.0000  0.0000  0.0000 </r>
        <r>  0.0000  0.1241  0.0007  0.2134  0.0000  0.0000  0.0000  0.0000  0.0000 </r>
        <r>  0.0000  0.0005  0.1243  0.2134  0.0000  0.0000  0.0000  0.0000  0.0000 </r>
       </set>
       <set comment="band 4">
        <r>  0.0597  0.0039  0.0001  0.0013  0.0000  0.0000  0.0000  0.0000  0.0000 </r>
        <r>  0.0597  0.0001  0.0039  0.0013  0.0000  0.0000  0.0000  0.0000  0.0000 </r>
        <r>  0.0493  0.1952  0.0687  0.0029  0.0000  0.0000  0.0000  0.0000  0.0000 </r>
        <r>  0.0493  0.0709  0.1929  0.0029  0.0000  0.0000  0.0000  0.0000  0.0000 </r>
       </set>
       <set comment="band 5">
        <r>  0.0112  0.0001  0.0016  0.0032  0.0000  0.0000  0.0000  0.0000  0.0000 </r>
        <r>  0.0112  0.0016  0.0001  0.0032  0.0000  0.0000  0.0000  0.0000  0.0000 </r>
        <r>  0.0258  0.1329  0.0547  0.1369  0.0000  0.0000  0.0000  0.0000  0.0000 </r>
        <r>  0.0258  0.0530  0.1345  0.1369  0.0000  0.0000  0.0000  0.0000  0.0000 </r>
       </set>
       <set comment="band 6">
        <r>  0.0242  0.0025  0.0032  0.0003  0.0000  0.0000  0.0000  0.0000  0.0000 </r>
        <r>  0.0242  0.0031  0.0025  0.0003  0.0000  0.0000  0.0000  0.0000  0.0000 </r>
        <r>  0.0086  0.0295  0.2887  0.0222  0.0000  0.0000  0.0000  0.0000  0.0000 </r>
        <r>  0.0086  0.2904  0.0277  0.0222  0.0000  0.0000  0.0000  0.0000  0.0000 </r>
       </set>
       <set comment="band 7">
        <r>  0.0115  0.0001  0.0064  0.0000  0.0000  0.0000  0.0000  0.0000  0.0000 </r>
        <r>  0.0115  0.0064  0.0001  0.0000  0.0000  0.0000  0.0000  0.0000  0.0000 </r>
        <r>  0.0045  0.0730  0.2807  0.0003  0.0000  0.0000  0.0000  0.0000  0.0000 </r>
        <r>  0.0045  0.2779  0.0757  0.0003  0.0000  0.0000  0.0000  0.0000  0.0000 </r>
       </set>
       <set comment="band 8">
        <r>  0.0015  0.0012  0.0001  0.0080  0.0000  0.0000  0.0000  0.0000  0.0000 </r>
        <r>  0.0015  0.0001  0.0012  0.0080  0.0000  0.0000  0.0000  0.0000  0.0000 </r>
        <r>  0.0400  0.0026  0.0000  0.2549  0.0000  0.0000  0.0000  0.0000  0.0000 </r>
        <r>  0.0400  0.0000  0.0026  0.2548  0.0000  0.0000  0.0000  0.0000  0.0000 </r>
       </set>
       <set comment="band 9">
        <r>  0.0048  0.0096  0.0003  0.0001  0.0000  0.0000  0.0000  0.0000  0.0000 </r>
        <r>  0.0048  0.0004  0.0096  0.0001  0.0000  0.0000  0.0000  0.0000  0.0000 </r>
        <r>  0.0118  0.0186  0.0001  0.0038  0.0000  0.0000  0.0000  0.0000  0.0000 </r>
        <r>  0.0118  0.0002  0.0185  0.0038  0.0000  0.0000  0.0000  0.0000  0.0000 </r>
       </set>
       <set comment="band 10">
        <r>  0.0003  0.0004  0.0000  0.0000  0.0000  0.0000  0.0000  0.0000  0.0000 </r>
        <r>  0.0003  0.0000  0.0004  0.0000  0.0000  0.0000  0.0000  0.0000  0.0000 </r>
        <r>  0.0004  0.0009  0.0000  0.0001  0.0000  0.0000  0.0000  0.0000  0.0000 </r>
        <r>  0.0004  0.0000  0.0010  0.0001  0.0000  0.0000  0.0000  0.0000  0.0000 </r>
       </set>
       <set comment="band 11">
        <r>  0.0023  0.0048  0.0002  0.0001  0.0000  0.0000  0.0000  0.0000  0.0000 </r>
        <r>  0.0023  0.0002  0.0047  0.0001  0.0000  0.0000  0.0000  0.0000  0.0000 </r>
        <r>  0.0003  0.0144  0.0020  0.0328  0.0000  0.0000  0.0000  0.0000  0.0000 </r>
        <r>  0.0003  0.0021  0.0142  0.0328  0.0000  0.0000  0.0000  0.0000  0.0000 </r>
       </set>
       <set comment="band 12">
        <r>  0.0000  0.0000  0.0000  0.0000  0.0000  0.0000  0.0000  0.0000  0.0000 </r>
        <r>  0.0000  0.0000  0.0000  0.0000  0.0000  0.0000  0.0000  0.0000  0.0000 </r>
        <r>  0.0002  0.0001  0.0007  0.0001  0.0000  0.0000  0.0000  0.0000  0.0000 </r>
        <r>  0.0002  0.0006  0.0001  0.0001  0.0000  0.0000  0.0000  0.0000  0.0000 </r>
       </set>
      </set>
     </set>
    </set>
   </array>
  </projected>
 </calculation>
 <structure name="finalpos" >
  <crystal>
   <varray name="basis" >
    <v>      20.00000000       0.00000000       0.00000000 </v>
    <v>       0.00000000      20.00000000       0.00000000 </v>
    <v>       0.00000000       0.00000000      20.00000000 </v>
   </varray>
   <i name="volume">   8000.00000000 </i>
   <varray name="rec_basis" >
    <v>       0.05000000       0.00000000       0.00000000 </v>
    <v>       0.00000000       0.05000000       0.00000000 </v>
    <v>       0.00000000       0.00000000       0.05000000 </v>
   </varray>
  </crystal>
  <varray name="positions" >
   <v>       0.49156100       0.54727700       0.49067000 </v>
   <v>       0.58197100       0.49021900       0.54718500 </v>
   <v>       0.50000000       0.50000000       0.50000000 </v>
   <v>       0.57352700       0.50000000       0.50000000 </v>
  </varray>
  <varray name="selective"  type="logical" >
   <v type="logical" >  T  T  T </v>
   <v type="logical" >  T  T  T </v>
   <v type="logical" >  F  F  F </v>
   <v type="logical" >  T  F  F </v>
  </varray>
  <nose>
   <v>      -3.00000000       0.00000000       0.00010000       0.00010000 </v>
  </nose>
 </structure>
</modeling>
